<?xml version="1.0"?>
<VTKFile type="UnstructuredGrid"  version="0.1"  >
<UnstructuredGrid>
<Piece  NumberOfPoints="502" NumberOfCells="2331">
<Points>
<DataArray  type="Float64"  NumberOfComponents="3"  format="ascii">-0.02673231263078617 -0.03467851381805391 -0.02359501353692734  -0.02577096234995373 -0.02478363001477926 -0.01829781950704899  -0.02451814266374033 -0.04077413088352909 -0.01490735340584851  -0.015209477718471 -0.02924705879444913 -0.0156123430384213  -0.0121948282714106 0.01901718870271957 -0.01317194460396335  -0.007212629979514138 0.01758638661240433 -0.02895975519616933  -0.01772249336685281 0.01206813732419872 -0.01856896785107297  -0.01896921586271135 0.02141418211920782 -0.02684239871437782  0.01719048204173633 -0.0008563251143427328 0.03215712201756855  0.02330811974066789 0.009623334931785226 0.04289730730413006  0.0270433993289772 -0.002292279979834428 0.04174300180216529  0.03050876029765986 0.01028730673730258 0.03790259820158262  -0.006154574548966634 -0.006154574548966637 -0.0492365963917331  0.005052060385992814 -0.0142938479659219 -0.03627091737806484  0.0001673148396087159 -0.004469868512217368 -0.03498778210178743  -0.006363723657332159 -0.02010719723470439 -0.04512657621095259  -0.02054783614101357 -0.01650135385926844 -0.02386702400340946  -0.01979967156652497 -0.02195563652264144 -0.03986632288751044  -0.0212843196474321 -0.03104535189136633 -0.03223527056278086  -0.03141248990026907 -0.02608136671893637 -0.02825543595204899  0.01500206569014377 -0.006101173872465906 0.002582807841673236  0.006355594480481925 -0.01082243466718911 -0.01039465849076361  0.01227088718866282 -0.002329717139954481 -0.007197543069495887  0.01746857212104399 -0.0152073176470161 -0.005118255705311895  0.03485883425612548 0.008818599206027846 0.01427180121924098  0.0473767732231096 0.01411706072856164 0.00705897655657915  0.04852544593348709 -0.0008677748360850493 0.01169036615782048  0.03981453894880478 0.006958363388051534 0.001074945356038574  -0.01806070437214239 0.006566133874851837 0.003762869032211025  -0.01849527920231047 0.01777571221309902 -0.004548652111237044  -0.02034798533185301 0.007575875737871727 -0.0080177636845798  -0.02757800999288732 0.0103867732340075 0.003944277160391913  -0.04842454178231798 -0.004302971241290695 0.01079500291836033  -0.03997385893765421 -0.008929991124091674 0.006533758298042441  -0.04523810984293748 -0.009679548282545251 0.01816598621195403  -0.04558282380810551 -0.01580220516037309 0.01221651700950452  0.01015718382507383 -0.02329567660908735 0.0003070496923027769  0.002559263332450123 -0.02222444137070417 -0.009040453571541478  0.008852471027661461 0.01865217865453734 -0.01399477687531324  0.01016139352783231 0.01237963052683256 -0.02191822968403987  0.0004546420126787512 0.01271294907785361 -0.008162666210792556  -0.004220959562986569 0.01378323682664255 -0.01729449502551797  0.02599719482838651 -0.0387508022876524 -0.01716587229814612  0.01515884678534848 -0.03156108062696025 -0.01870502733445693  0.02685102286909291 -0.02590100627033042 -0.006466205872409854  0.0187692677269008 -0.02220435651238499 -0.01500064034812846  -0.001294173286979557 -0.01440117314756158 0.001446722774164872  -0.001677123077615137 -0.02130127059060128 0.009874778167884776  -0.0001416276754788808 -0.03208951178292144 0.01008976382216579  -0.01277210720965172 -0.03146933333608938 0.01572533588024711  -0.01311932255829579 -0.02135890422801779 0.006273776657387349  -0.003799845257303866 -0.01471787574981103 0.0474225480470319  -0.01830826325851311 -0.01473041672973983 0.04381794061467147  -0.0132837544919765 -0.007221313414592267 0.04760611226335656  -0.01043983731114147 -0.01507122520185773 0.03762276047719271  0.004566061103466406 0.03603237055250197 -0.00653333716110107  -0.006993336208841908 0.0491029576301124 -0.005662875343726504  0.003822097975520035 0.04962923030814199 -0.002662995668671449  0.004866179147038715 0.04771114921363762 -0.01368482478252087  -0.01329195620312665 -0.003548044124097064 -0.02840505219191768  -0.01909050721397588 -0.009880886143037193 -0.01429883620306047  -0.02739878697918868 -0.003650401394279656 -0.01974476728088763  0.0253501259267726 0.03233478036880572 0.00930345322393218  0.02288239494421813 0.04034629606687444 0.01803703783975264  0.0216565209837325 0.02478147840828276 0.02191577194245016  0.03036250130976699 0.03510573202862306 0.01764250553274316  0.009552106986894942 0.0402986886712675 0.02741711705554394  0.0019739904589505 0.04312521272723528 0.02471960553296566  0.004929630167125788 0.04634031317125252 0.01739697077388817  0.008495752266194288 0.03452111330164503 0.01620545004852512  0.0104141759633219 -0.002566478357673989 -0.03896986893026169  0.004182850762710758 -0.005228694327650439 -0.04943194095243537  0.01787450850442152 -0.007126018856858716 -0.04591765541451071  0.007523371066619738 -0.0147583972979704 -0.04702705817924758  -0.04663894102266981 -0.01007382992981993 -0.01429343590529086  -0.03267369152606325 -0.01267347843196086 -0.01309193530763665  -0.04409958330151105 -0.02156963515911918 -0.008674691160587961  -0.0421577629943405 -0.01883068136722284 -0.01815572350122148  -0.02403930698174962 0.008652334489642326 0.02686078224287754  -0.02608166404410915 -0.004249956631808435 0.0247096621556186  -0.0204270096672514 0.0002302503197212369 0.03320759331475504  -0.03418328210540658 0.007498284729655548 0.03528904386819204  0.03997345964186072 0.002151641612352639 -0.00846541586979252  0.0487326177845504 -0.006714034957627525 -0.008135421629403655  0.03441897265988816 -0.006333823112266496 -0.006133339984575356  0.03679637849695044 -0.004182764688266063 -0.01726867259437594  0.009452375689697317 -0.01245545234706236 -0.026307219556799  0.01485704765173865 -0.01229798663466742 -0.01693015311206351  0.003442265202185962 -0.0176040091087501 -0.01884663806752447  -0.008453361715932618 0.006321575311660742 -0.03554553982866366  -0.009551307846928068 0.006382783078534491 -0.02417438992212236  0.002622811727935089 0.006058214499367118 -0.02457317344839832  -0.01772380488571292 0.02712879316905519 -0.009765399876713102  -0.01530745303222392 0.01945927600288767 0.005565354538625457  -0.01176303422961663 0.03328376940400416 0.002148463727949563  -0.02384999234316564 0.0281478610586026 0.001484204598730624  0.01804536439939723 -0.008740694361229439 0.04549312914147492  0.02559764942182035 -0.01464637741565982 0.04014528553548742  0.02963902222919659 0.001796830238127676 0.004824665248610715  0.03226302005274069 0.01609550713507227 0.003006299997270158  0.04294614978917934 0.022950490449141 0.01032230440997549  0.03655669144390115 0.03140536913016559 0.01202908577094665  0.04152795663493633 0.02761830560439424 0.001129402627942562  0.02815486743512373 0.02295350720144463 0.01184648533557795  0.03140985183942877 0.01367677080708824 -0.01974313786199006  0.01948711473479486 0.02463293929703727 -0.02312051146322609  0.02021374717492008 0.0125213031433412 -0.02025409099944745  0.02685590433728685 0.02109854995661811 -0.01189332155575763  -0.009655251593321175 0.001733980186483418 0.03565099850428045  -0.01703021507132847 -0.01053495885827357 0.03158970628567014  -0.0279794310195953 0.0270482866528565 -0.008193672853800344  -0.04176024776914759 0.01916951160771797 -0.01870225602908247  -0.04017322298758459 0.01040275976357834 -0.02727222163924831  -0.03418383326677275 0.01401661197408161 -0.01388787616566525  -0.04512694291133702 0.009630467696044698 -0.01848359072633932  0.02522566502474035 -0.006307283292615165 -0.0006252824312830592  0.03814350460749113 -0.00738598015287875 0.005809934710663219  0.03064534800625921 -0.0101091480523147 0.0155044170221451  0.02759916313728713 -0.01653813952998602 0.00150835179389739  -0.03854379137842278 0.01369436712263208 -0.001217754589518251  -0.03980243533002556 0.02899509594313743 -0.007492680708787132  -0.04644397574820903 0.01619984732526787 -0.007654057878200933  -0.02943370751721471 0.01920934516294469 0.008835893616871024  -0.04521945718731806 0.02077801560499165 0.002703183350902876  -0.0409610217824456 0.02276827227744826 0.01688356537248233  -0.03945504594977363 0.02965761753488293 0.006905057817426802  -0.01711481934825329 0.03645779025604557 -0.00585167753707873  -0.0137314253720479 0.04778903190431619 0.003186472092709205  -0.002849002777587593 0.04064124064753247 0.001111456372384737  -0.00133129623666843 0.004707257835733464 -0.04965933415279476  0.00408059083137125 0.00937014178882674 -0.03787238835939132  0.02283852435283971 0.01078960760616577 0.006704561203729568  0.01236967994852092 0.007187282066663223 0.009546633072123419  0.009287855137040057 0.004896246729890526 -0.0002100124291072279  0.01985806725185203 0.004461397647234659 -0.003502418650247013  0.002222577146231444 0.03115368445657981 0.006049755541999936  -0.006121047611643041 0.02329120213218091 -0.0009149306875491188  -0.01153404989963584 -0.003373657912685918 0.02224770832499924  -0.01555235626274963 0.005906448863644055 0.0220939609015273  -0.0110032422882885 0.02753314573864569 0.01068307967889119  -0.003878122058733625 0.01919252184923191 0.02250408808217028  -0.01307095320600542 0.01551359439393211 0.02405258279152986  -0.004127575236323285 0.01983933685653078 0.01081397368473196  0.007282555796960044 -0.002073001888868065 -0.02827018236713318  0.01746642876610954 -0.009986147931527434 -0.03453226751744951  -0.03366270571553474 0.02365178079464646 -0.0002050051790678899  0.0146650954903122 0.01334472789722315 -0.04575490229376915  0.01039753181393983 0.003045614756487319 -0.04861259708824997  -0.02184794789803644 -0.0434369721175576 0.0104593095135834  -0.01350624541188537 -0.04800748715564994 0.0006269643561916729  -0.02811216324426727 -0.04116358236437946 -0.001488071977821413  -0.01624517150791528 -0.03419931943052537 0.001447249201679468  -0.005415460729437278 0.006493200566479168 0.02458571359241171  -0.005924074822828594 0.007611703031998523 0.01244795589242706  0.03636102973207415 0.02071735786532276 0.0265840856
[...]
<PointData  Scalars="f_107"> 
<DataArray  type="Float64"  Name="f_107"  format="ascii">6.6661200000000000e+05  4.0582406486012024e+05  6.6661200000000000e+05  3.3700158740356157e+05  2.0998740780886120e+05  3.0857849076166493e+05  2.3018291562906082e+05  3.8492959535137500e+05  3.3677099998651439e+05  6.6661200000000000e+05  6.6661200000000000e+05  6.6661200000000000e+05  6.6661200000000000e+05  3.8658291214756126e+05  3.1677321473808121e+05  6.6661200000000000e+05  3.2298567855749413e+05  6.6661200000000000e+05  6.6661200000000000e+05  6.6661200000000000e+05  1.4823100312964365e+05  1.4790208859510664e+05  1.4015408255401219e+05  1.9002758996550209e+05  3.7697321278873453e+05  6.6661200000000000e+05  6.6661200000000000e+05  4.1084502153700648e+05  1.6337716117248195e+05  2.0903730964821094e+05  1.8655122795746350e+05  2.4398630681181460e+05  6.6661200000000000e+05  4.3307501481175807e+05  6.6661200000000000e+05  6.6661200000000000e+05  2.0331230620689262e+05  1.9330732618082754e+05  2.0002790820478037e+05  2.1886565683585143e+05  1.4300150994953222e+05  1.8196918123920850e+05  6.6661200000000000e+05  3.9586981197744043e+05  3.6049957606604981e+05  2.7981725058996148e+05  1.4052425150154944e+05  1.8908598056163170e+05  2.9299966201785905e+05  3.5456717606024171e+05  2.0741233128169604e+05  6.6661200000000000e+05  6.6661200000000000e+05  6.6661200000000000e+05  4.4313964720322489e+05  3.4025472319392493e+05  6.6661200000000000e+05  6.6661200000000000e+05  6.6661200000000000e+05  2.6484577182145853e+05  2.0662038247924633e+05  2.9814101298642921e+05  4.4999002566727955e+05  6.6661200000000000e+05  3.9542097228657414e+05  6.6661200000000000e+05  6.6661200000000000e+05  6.6661200000000000e+05  6.6661200000000000e+05  3.8285717652275297e+05  4.0969553352875984e+05  6.6661200000000000e+05  6.6661200000000000e+05  6.6661200000000000e+05  6.6661200000000000e+05  3.5243773206423892e+05  6.6661200000000000e+05  6.6661200000000000e+05  3.4711333377122105e+05  3.3210957592274621e+05  3.7883720186343044e+05  6.6661200000000000e+05  4.2033878918444860e+05  6.6661200000000000e+05  3.2100296012865717e+05  4.2219174675526150e+05  2.5426919371022587e+05  2.0542339389921611e+05  2.0858789506624930e+05  3.4686386550737685e+05  2.1470521429915534e+05  2.0383580431075016e+05  2.9518222394534020e+05  2.0321412420052270e+05  3.1728521947708697e+05  3.4367273622349312e+05  6.6661200000000000e+05  6.6661200000000000e+05  2.4802180829688802e+05  3.3069914635850204e+05  6.6661200000000000e+05  6.6661200000000000e+05  6.6661200000000000e+05  3.6755388295228191e+05  3.9386361833201192e+05  3.8303216716461215e+05  2.6229543647257960e+05  3.3243606963268149e+05  3.4359901379471208e+05  3.5249895449919574e+05  3.9770855258453183e+05  6.6661200000000000e+05  6.6661200000000000e+05  3.9078237091520708e+05  6.6661200000000000e+05  2.0875781170893295e+05  3.8919121005962905e+05  3.2660532186441787e+05  2.7374113383414218e+05  4.1791290370879608e+05  6.6661200000000000e+05  6.6661200000000000e+05  3.3247948689214513e+05  6.6661200000000000e+05  6.6661200000000000e+05  6.6661200000000000e+05  4.1585776479077915e+05  6.6661200000000000e+05  4.1643130406563106e+05  6.6661200000000000e+05  3.8716330064102326e+05  2.0918345627428140e+05  1.5158939692939928e+05  1.2817188860737515e+05  1.7031984650886236e+05  2.6764367724749295e+05  1.9327932501474966e+05  2.0229932032653753e+05  2.2310647687179816e+05  2.6410889407047164e+05  2.4505129472262433e+05  2.6395756009049679e+05  1.8435909056837225e+05  2.3952858499679813e+05  4.0086514106961910e+05  4.2512761146779713e+05  6.6661200000000000e+05  6.6661200000000000e+05  6.6661200000000000e+05  6.6661200000000000e+05  6.6661200000000000e+05  3.6164503110228584e+05  2.0796503715371326e+05  1.4543753193451848e+05  6.6661200000000000e+05  3.9489034107781172e+05  2.7707377511524031e+05  4.2226260574625805e+05  6.6661200000000000e+05  6.6661200000000000e+05  6.6661200000000000e+05  6.6661200000000000e+05  3.1373161880719615e+05  6.6661200000000000e+05  3.4919888414444152e+05  6.6661200000000000e+05  6.6661200000000000e+05  6.6661200000000000e+05  6.6661200000000000e+05  1.8410785626270107e+05  3.3935458678649593e+05  6.6661200000000000e+05  6.6661200000000000e+05  6.6661200000000000e+05  3.7594106646204734e+05  2.0275427697438654e+05  3.3414273761066823e+05  2.8346121971577680e+05  3.3534000312822551e+05  3.3886284479821892e+05  2.2002220953001679e+05  3.7585656580644764e+05  2.0574168959394272e+05  6.6661200000000000e+05  3.3578624497203378e+05  6.6661200000000000e+05  3.7919545271656604e+05  6.6661200000000000e+05  3.7146218813529215e+05  6.6661200000000000e+05  3.0319401876519137e+05  1.6677152967842208e+05  1.4459690435627635e+05  1.2752292382465380e+05  4.0291812781971827e+05  3.8808064094069228e+05  6.6661200000000000e+05  6.6661200000000000e+05  1.9655822272110602e+05  6.6661200000000000e+05  6.6661200000000000e+05  3.7440311081567942e+05  6.6661200000000000e+05  6.6661200000000000e+05  6.6661200000000000e+05  3.0097598292172590e+05  3.9905534575364063e+05  6.6661200000000000e+05  2.9418895498751558e+05  6.6661200000000000e+05  6.6661200000000000e+05  6.6661200000000000e+05  6.6661200000000000e+05  4.1413166342920717e+05  2.0343464816714369e+05  3.4028988120316691e+05  2.7633824096789182e+05  2.3938695338548787e+05  3.6932397706409305e+05  3.5282410759358894e+05  6.6661200000000000e+05  6.6661200000000000e+05  4.2190318536314962e+05  2.2814774671377591e+05  1.4570775569951869e+05  2.1156294173992195e+05  6.6661200000000000e+05  6.6661200000000000e+05  3.5660745082883473e+05  4.1018546358420502e+05  6.6661200000000000e+05  4.1296108249431936e+05  4.4050705552611145e+05  6.6661200000000000e+05  3.6588675276733306e+05  6.6661200000000000e+05  4.1177650945890456e+05  6.6661200000000000e+05  3.7233756240920600e+05  4.0828415229577979e+05  6.6661200000000000e+05  4.3386735247553070e+05  6.6661200000000000e+05  3.7785858425865625e+05  6.6661200000000000e+05  6.6661200000000000e+05  6.6661200000000000e+05  2.6578129508983658e+05  2.0100788394405667e+05  3.8857050888604630e+05  6.6661200000000000e+05  2.8920835555910983e+05  6.6661200000000000e+05  3.9929364834015834e+05  6.6661200000000000e+05  6.6661200000000000e+05  3.3860603672929789e+05  4.1086932786180353e+05  6.6661200000000000e+05  4.0373979288281139e+05  2.0544996883151273e+05  2.6089439865842927e+05  2.0080381917671184e+05  6.6661200000000000e+05  6.6661200000000000e+05  3.3523875100786868e+05  6.6661200000000000e+05  4.2166363875804504e+05  6.6661200000000000e+05  2.1159241433746953e+05  6.6661200000000000e+05  4.2624623115057906e+05  6.6661200000000000e+05  4.0034984783590533e+05  4.1612442388415843e+05  4.1571197707210208e+05  2.7569886652111594e+05  2.7835301981256786e+05  6.6661200000000000e+05  6.6661200000000000e+05  6.6661200000000000e+05  6.6661200000000000e+05  6.6661200000000000e+05  4.3835209437457676e+05  6.6661200000000000e+05  6.6661200000000000e+05  6.6661200000000000e+05  6.6661200000000000e+05  3.8202339167326869e+05  6.6661200000000000e+05  6.6661200000000000e+05  6.6661200000000000e+05  4.2316987837405677e+05  6.6661200000000000e+05  6.6661200000000000e+05  6.6661200000000000e+05  6.6661200000000000e+05  2.6288243056443264e+05  2.1807762388358868e+05  2.1851858996026867e+05  4.1390681234641350e+05  3.3675241315264622e+05  6.6661200000000000e+05  6.6661200000000000e+05  2.1736200285134659e+05  6.6661200000000000e+05  4.4625433604568039e+05  6.6661200000000000e+05  1.1531653785881227e+05  1.4534288524278384e+05  1.5775346497339912e+05  6.6661200000000000e+05  6.6661200000000000e+05  6.6661200000000000e+05  2.4928155730519697e+05  6.6661200000000000e+05  4.1967789540570485e+05  4.2064962464034179e+05  6.6661200000000000e+05  6.6661200000000000e+05  6.6661200000000000e+05  4.0470441109518672e+05  6.6661200000000000e+05  6.6661200000000000e+05  3.3747693082173588e+05  6.6661200000000000e+05  6.6661200000000000e+05  3.4472589205724484e+05  6.6661200000000000e+05  6.6661200000000000e+05  6.6661200000000000e+05  1.7261786787708197e+05  3.0710035553357727e+05  6.6661200000000000e+05  6.6661200000000000e+05  6.6661200000000000e+05  1.4688105081969308e+05  2.1789245591598417e+05  4.1069198305589810e+05  6.6661200000000000e+05  3.9782653438610421e+05  3.0736983604556252e+05  2.0286001869411496e+05  6.6661200000000000e+05  6.6661200000000000e+05  6.6661200000000000e+05  1.2743352093705238e+05  3.9704129184854921e+05  6.6661200000000000e+05  2.1659824066720429e+05  1.9915888794627643e+05  2.3849351830001254e+05  6.6661200000000000e+05  1.7357139987593438e+05  2.2026905245359582e+05  6.6661200000000000e+05  6.6661200000000000e+05  4.2574149885601795e+05  3.3596127806736616e+05  6.6661200000000000e+05  3.5124223214541969e+05  6.6661200000000000e+05  6.6661200000000000e+05  4.0356516099612199e+05  3.9303777783335553e+05  6.6661200000000000e+05  1.4839668506955836e+05  3.2292238213651429e+05  6.6661200000000000e+05  4.1336011375010922e+05  3.8232061135233828e+05  6.6661200000000000e+05  6.6661200000000000e+05  6.6661200000000000e+05  6.6661200000000000e+05  3.5853373221992142e+05  6.6661200000000000e+05  6.6661200000000000e+05  6.6661200000000000e+05  4.0892267558013927e+05  6.6661200000000000e+05  6.6661200000000000e+05  6.6661200000000000e+05  3.5010459599001158e+05  6.6661200000000000e+05  4.1479197201450862e+05  1.3184703161230739e+05  2.6469142964962713e+05  3.9645894731876435e+05  6.6661200000000000e+05  6.6661200000000000e+05  6.6661200000000000e+05  6.6661200000000000e+05  3.6982387711008452e+05  6.6661200000000000e+05  1.7682021539728661e+05  6.6661200000000000e+05  6.6661200000000000e+05  3.0583422798903997e+05  4.2003681826505228e+05  6.6661200000000000e+05  1.4879740276425786e+05  2.4055597505486940e+05  6.6661200000000000e+05  4.0698849154033349e+05  6.6661200000000000e+05  3.0367674618492159e+05  3.7725449029753270e+05  1.8346587964177405e+05  6.6661200000000000e+05  6.6661200000000000e+05  3.9439266134212038e+05  6.6661200000000000e+05  4.3830352054171351e+05  6.6661200000000000e+05  6.6661200000000000e+05  6.6661200000000000e+05  6.6661200000000000e+05  6.6661200000000000e+05  6.6661200000000000e+05  6.6661200000000000e+05  3.6242501796808542e+05  4.1836360626513261e+05  6.6661200000000000e+05  3.3536233746870281e+05  6.6661200000000000e+05  6.6661200000000000e+05  4.0073050866095669e+05  2.5311164316066843e+05  6.6661200000000000e+05  3.6273337458657619e+05  6.6661200000000000e+05  6.6661200000000000e+05  4.0735233003203961e+05  6.6661200000000000e+05  6.6661200000000000e+05  6.6661200000000000e+05  6.6661200000000000e+05  6.6661200000000000e+05  6.6661200000000000e+05  6.6661200000000000e+05  6.6661200000000000e+05  1.8873504198928358e+05  6.6661200000000000e+05  3.3364957955857035e+05  4.3570537608137471e+05  6.6661200000000000e+05  3.9216049068563664e+05  6.6661200000000000e+05  6.6661200000000000e+05  6.6661200000000000e+05  6.6661200000000000e+05  2.0256703983050227e+05  2.2481424885872219e+05  2.1468497352935991e+05  6.6661200000000000e+05  4.0969372296628664e+05  6.6661200000000000e+05  4.1772096474080463e+05  3.5254484132437449e+05  1.4083718828787442e+05  6.6661200000000000e+05  6.6661200000000000e+05  6.6661200000000000e+05  6.6661200000000000e+05  6.6661200000000000e+05  6.6661200000000000e+05  2.1409995840070973e+05  6.6661200000000000e+05  6.6661200000000000e+05  1.2869979570811118e+05  6.6661200000000000e+05  6.6661200000000000e+05  6.6661200000000000e+05  1.4442561367649058e+05  6.6661200000000000e+05  6.6661200000000000e+05  6.6661200000000000e+05  6.6661200000000000e+05  4.2134231538976170e+05  6.6661200000000000e+05  6.6661200000000000e+05  6.6661200000000000e+05  6.6661200000000000e+05  6.6661200000000000e+05  6.6661200000000000e+05  6.6661200000000000e+05  6.6661200000000000e+05  6.6661200000000000e+05  6.6661200000000000e+05  6.6661200000000000e+05  6.6661200000000000e+05  6.6661200000000000e+05  6.6661200000000000e+05  6.6661200000000000e+05  6.6661200000000000e+05  6.6661200000000000e+05  6.6661200000000000e+05  6.6661200000000000e+05  6.6661200000000000e+05  6.6661200000000000e+05  6.6661200000000000e+05  </DataArray> 
</PointData> 
</Piece>
</UnstructuredGrid>
</VTKFile>