<?xml version="1.0"?>
<VTKFile type="UnstructuredGrid"  version="0.1"  >
<UnstructuredGrid>
<Piece  NumberOfPoints="819" NumberOfCells="3964">
<Points>
<DataArray  type="Float64"  NumberOfComponents="3"  format="ascii">0.03391733831408385 0.02265918801731969 0.009003007920479995  0.02777231353270769 0.02282222422820375 0.002326802387651764  0.03362084931858903 0.02438556867844457 -0.00587857001417445  0.03666242690743109 0.01645019572534583 -0.001932642765313309  -0.03029580911640066 -0.03358728821589178 -0.02046270606465087  -0.0380959304756423 -0.02430246464421836 -0.02053598925644366  -0.02805098938283903 -0.02697840612638041 -0.01582927099893063  -0.0335724362191966 -0.02476158987935429 -0.02715836475784716  0.01372465297610426 0.003546791944412671 0.03918976238918156  0.02303760844917831 0.008594164546980825 0.03301616701047275  0.01906995383029007 -0.001403296197298022 0.03465901372064171  0.01379441955906744 0.008232279113407771 0.03065905531567526  0.02383051172894332 -0.02703802406524399 0.02109171352426876  0.01510473639096623 -0.02659839108365709 0.02632078577342646  0.01584934878436743 -0.0291899209497199 0.01633312045983958  0.02112455700583303 -0.03744119520694711 0.02485412111166569  0.001431837179664741 0.04875921685862467 -0.01027896346491556  0.002441069583235104 0.0498574752737846 -0.0001322685954075448  -0.00279084976029286 0.04955722253906401 -0.004762356733480662  0.005612060670120908 0.04210685024980758 -0.00336434214387398  0.02485502635949707 -0.02552928399103303 0.0349114096075249  0.01864136266458071 -0.02027094758690211 0.04129305901151965  0.01674179123851448 -0.01276164039928017 0.0362572427514223  0.01801661986142623 -0.0168246365733084 0.02805819490924602  -0.006392847550542178 -0.02126732596949697 -0.01042423214529021  -0.01041838694642925 -0.02770005123867279 -0.002923521023984785  -0.01612480785304577 -0.01982993558526772 -0.007481996570452163  -0.01264705520703098 -0.03021799800827723 -0.01234061380815792  0.020804024190734 -0.03504916795779255 -0.004041575686325071  0.01170979391247351 -0.03365674017226833 -0.006567555130703963  0.01296075806517267 -0.02382290118946882 -0.004708797211717373  0.02408862045714517 -0.02677024922476671 -0.007461427090112385  -0.006322261140890326 0.01787641213663135 -0.01909880727598499  0.0009093911860167377 0.009296151183229032 -0.01315031207236927  0.004371976841956678 0.02064942746944624 -0.02210500887597412  0.001054317388841928 0.01746274393236862 -0.008103159026284074  -0.0058895294819853 -0.001131776521823324 0.03684650604589917  -0.0182008779255266 0.003415381377268788 0.03824986009953651  -0.01510202620660094 0.006126818967777196 0.04711440216772556  -0.01063900868131384 0.008757379969190699 0.0374119613532574  -0.008544925320178545 -0.001108910336619591 -0.03103880466977903  -0.01590067080208029 0.002722445279149784 -0.03714330885926263  -0.01154877946515877 -0.00773032013697587 -0.03779283447067085  -0.01995427664138559 -0.005617280313965721 -0.03295901548908702  -0.0004117926691131638 0.03675206573032201 -0.008856690684835347  -0.005881357913717306 0.03996100472649422 0.002510515741504358  -0.01049774599950707 0.04129469806504479 -0.005080713608038903  -0.0107045908241105 0.0328010463234182 -0.00356129071080937  -0.01389058299776704 0.01051115532936419 -0.02700583685560614  -0.0233880733876356 0.00744194132055414 -0.01658531295659439  -0.02167481031737873 0.006290670931776153 -0.02956583349959173  -0.01450340475743556 0.01027564812400867 -0.01781185772913468  -0.02032379518015107 0.03175172137513565 0.004404187862990475  -0.0123859871881441 0.02530099989900331 0.0032802104669982  -0.006712471907757108 0.03164060088614284 0.004493039230799049  -0.01398672520770116 0.03816975122693623 0.006743030141986118  -0.03096693064026581 0.004450900669347217 -0.02128491310581276  -0.02915819349268004 0.01111480346653595 -0.02733302042400589  -0.02858830956024319 -0.001302315396493596 -0.02945225537911398  -0.03505744003422559 0.005870106667424105 -0.03468378180937426  0.006792579489900287 0.02828352270877948 -0.04035169985418061  0.00773462022471156 0.02382550126713144 -0.03054422654752638  0.002433317967388419 0.02330067241914124 -0.04386807791241858  0.01028926060747496 0.01384281506090402 -0.03382564654559489  0.04569463960403007 0.001558108738268444 -0.01994767470288257  0.0427659671112082 0.009949888578858441 -0.02338309944659682  0.04151292921215531 -0.002853198606589401 -0.02728626450887114  0.03531049264422392 0.001477167542551348 -0.02061124021800458  -0.04277608211960764 -0.01982167327655388 -0.01578758501289245  -0.04107655611489766 -0.01454783575785554 -0.0241877732697863  -0.0309557622173795 -0.01329437418075945 -0.0196076797370904  -0.008800573400297877 -0.01560955352154145 -0.01964890716361117  -0.003200702903620203 -0.02013237620253854 -0.02623127698574228  -0.01248334699873134 -0.02183461199269273 -0.03113546300487187  -0.005993747923586378 -0.01430502116577409 -0.03285339553755716  -0.01676892937797801 -0.0144603250297524 0.004707892520568062  -0.02616175782348606 -0.01688066677995549 0.003010263044925758  -0.01745897929258491 -0.02160793720870091 0.01223559004738858  -0.02622562534150005 -0.02077894918525625 0.01205263781374375  0.02035458222175196 0.02750062972384272 -0.0358478380657991  0.01228698976864939 0.03646409446692878 -0.03140208085662471  -0.0336755952105653 0.03636840910748847 0.004036743505201543  -0.0269292173567109 0.02886644400847452 0.01141441841959449  -0.02790047338512817 0.03831886398284973 0.01470199783691593  0.01687832288091832 -0.03658472879558249 0.004517359632095774  0.01596149376141084 -0.04523297489850682 0.01351518589427556  0.01337908229386117 -0.04778124497773887 0.005456732183190651  0.02610155451114817 -0.04148292076329278 0.008198818179390346  0.02168970320925774 0.03226290816930704 -6.611505875191506e-05  0.0133312325303715 0.03818417799172215 -1.356089305383501e-05  0.01949529039237474 0.03623891226213074 0.007586456624776978  0.02685825648260692 0.04161863787188345 0.004129965769941631  -0.01388064445062686 0.005425140241912464 -0.01073209826494277  -0.01494342942421526 0.000936231752778076 -0.02282651708471135  -0.01979042261564302 -0.0008736070610365311 -0.04582831275518217  -0.01131589059168812 -0.009189071534689484 -0.04760613835632455  -0.01964363670543951 -0.009821818352719742 -0.04463853901210876  -0.02922847745988165 0.009021313922310313 -0.03928097624873131  -0.02550645987126694 0.01616603636089672 -0.0396559894687757  -0.01738802291962087 0.01529776202091504 -0.03562131865687125  -0.01576933595850853 0.01430266208184368 -0.003685616698175146  -0.007717167399504709 0.01764502342826609 -0.004202412508199293  -0.01334537290205774 0.01574661720586999 0.006978490996162954  0.04165220701587894 -0.02740882951479832 0.001206277617574648  0.02788034606266267 -0.03051632929337544 0.001219137528798437  0.03049053281352669 -0.02121985073803397 0.004463349705389415  0.03354317665820205 -0.02398335073710681 -0.00715509110704389  0.03546320599141826 0.007870677744991797 0.01902951117993217  0.03834636261927686 0.012855441478387 0.007814863877170617  0.04399824369411814 0.01328928551089813 0.01884216554219382  0.04790883212617836 0.007863826635945136 0.01113792698820083  -0.0143647704918647 -0.004418551441154508 -0.001108286603527561  -0.01506714033301379 0.005722458667233598 -0.002214934390748964  -0.006081930132931306 0.004307087644564175 -0.007272580297745359  0.02267287313013683 0.007527668616081964 -0.0001888912135198594  0.02594815571629533 2.926029635634542e-07 -0.002655873775144419  0.02959673852916104 -0.001126975843900896 0.005817487879882068  0.0204427608336082 0.003530238640438822 0.007058316618198816  0.03117420273563468 0.01252240850918265 -0.01090358666242205  0.03432020428876408 0.02015498897320997 -0.01431667873816599  0.03999254478484932 0.01159973057755773 -0.00975937014731736  0.01809105081937503 -0.03156719067383854 -0.01478676311268396  -0.002671025630126602 -0.0402814661153048 0.01260990496338758  -0.0009337025183075529 -0.04082377228778687 0.004062018729812998  -0.01035378959215541 -0.03479772613979952 0.00562525863447301  -0.00193537609389139 -0.03108107963048044 0.007810833879386169  0.005463978606216211 0.001403982007121581 0.03831060264416292  -0.001911770024632139 0.005388061677739556 0.04165741712376257  0.008016807521781215 0.005794261912241121 0.0488786820797832  0.008621148568698587 0.01039319925858045 0.03836257016119533  0.02624524205269627 -0.000863963191009641 -0.01374836091664088  0.02124821358841173 0.01334169196586132 -0.01576724212760242  0.02835496761631993 0.008524142974259361 -0.02254490215836547  0.01907988295230587 0.001253627800837507 -0.0204653074326434  -0.002661365796431476 0.00769214656685346 -0.03160160319419415  0.00543342697347228 0.01119014623163251 -0.0401161660840984  -0.0004384167008778198 0.01500195314285253 -0.02823537247769373  0.0002812590717779714 -0.01027114394435717 0.03944304252496674  -0.0002857015888791026 -0.02027166917452208 0.04562936565030847  -0.006804138174397719 -0.01360827634879544 0.04762896722078402  -0.007720934706751308 -0.01635493040129461 0.03825213526893242  -0.03013042053449085 -0.01390645033081745 -0.03686370408076096  -0.01702521775314778 -0.01433994430921349 -0.03508104797148928  -0.02748113008605727 -0.01075535023123222 -0.02819015594666625  -0.01995983093964362 -0.01657472171534561 -0.02686970767722495  0.02931970604908826 -0.002638699234267935 0.04014459476972635  0.0238222545766856 -0.01157037606648742 0.04207148729843692  0.01773356747959117 -0.001649060289293514 0.04652646140273531  -0.03058484441905975 0.02637979801717234 0.0004055308181811538  -0.02216283512713958 0.02326792035764655 0.006766107829050683  -0.0212552582549391 0.0207397873717558 -0.001507555555455187  0.03707378814678683 -0.004050272031376032 0.03296187859793986  0.04126821862452315 0.003740772066232179 0.02748458213547467  0.03244797010682735 -0.001414462014462276 0.02462469762368583  0.03387887635367955 0.005887619357934911 0.03585945
[...]
<PointData  Scalars="f_155"> 
<DataArray  type="Float64"  Name="f_155"  format="ascii">4.3695389878821955e+05  3.2550923478855059e+05  4.4254184900567139e+05  4.0371401947177167e+05  6.6661200000000000e+05  6.6661200000000000e+05  4.4376985806596867e+05  6.6661200000000000e+05  4.3429512365563156e+05  4.2346385235349752e+05  3.9077825785315066e+05  3.0335940377366456e+05  4.3962815007692605e+05  4.0710618067630881e+05  3.4293860525673628e+05  6.6661200000000000e+05  6.6661200000000000e+05  6.6661200000000000e+05  6.6661200000000000e+05  4.5462567825957359e+05  6.6661200000000000e+05  6.6661200000000000e+05  4.4043912076076533e+05  3.5002704898135259e+05  1.9472395155438519e+05  2.4244473441584426e+05  2.1208163294963524e+05  3.1108686360402609e+05  4.1833656505987514e+05  3.2956008351213962e+05  2.2010004066880140e+05  3.3888794597335591e+05  2.1506013061205484e+05  1.4577662459348535e+05  2.5167258754931341e+05  1.6054555767744675e+05  3.4679456806344917e+05  4.5438534704166069e+05  6.6661200000000000e+05  3.9423685484369763e+05  2.7054884757813328e+05  4.0734392179734638e+05  4.0244000697431550e+05  3.7783100186312397e+05  3.5507921864388243e+05  4.0719484443094948e+05  4.6316376998099056e+05  3.0459298110409302e+05  2.7002131849445897e+05  2.4109370661304181e+05  3.4473044426272612e+05  1.9950414603054264e+05  3.6051423331288795e+05  2.2800802248426122e+05  2.7628922869446757e+05  4.2372153816515068e+05  3.5718960065726424e+05  4.3135741344675224e+05  4.2216406784442585e+05  6.6661200000000000e+05  6.6661200000000000e+05  3.9009824463672907e+05  6.6661200000000000e+05  3.5922604321223398e+05  6.6661200000000000e+05  6.6661200000000000e+05  6.6661200000000000e+05  4.1800776083370234e+05  6.6661200000000000e+05  6.6661200000000000e+05  3.7921304510499543e+05  2.1173822755163044e+05  2.8435296007675532e+05  4.0047599524342694e+05  3.3099210601881839e+05  1.8095722768919417e+05  2.5986825210284154e+05  2.4945012486434568e+05  3.1895193118426029e+05  6.6661200000000000e+05  6.6661200000000000e+05  6.6661200000000000e+05  4.2547377086289716e+05  6.6661200000000000e+05  4.0934784239645157e+05  6.6661200000000000e+05  6.6661200000000000e+05  6.6661200000000000e+05  3.7629979642032034e+05  4.0625491008622653e+05  4.3796459624972532e+05  6.6661200000000000e+05  1.5581618338703655e+05  2.1771993148048141e+05  6.6661200000000000e+05  6.6661200000000000e+05  6.6661200000000000e+05  6.6661200000000000e+05  6.6661200000000000e+05  4.5371959030919144e+05  1.7393969714262334e+05  1.6275161210021193e+05  1.7544142648240537e+05  6.6661200000000000e+05  4.2945512576270365e+05  3.4997399743258912e+05  4.4008180388240534e+05  4.2202323125455424e+05  4.2552984210074943e+05  6.6661200000000000e+05  6.6661200000000000e+05  1.4139044242928788e+05  1.4635561611741543e+05  1.2679018777340668e+05  1.8956754721266660e+05  2.0653980569107874e+05  2.4680231083793147e+05  1.7604409464992437e+05  3.1441830092794955e+05  4.5127176922488131e+05  4.6056988956874225e+05  3.8439297699308133e+05  4.5040823096189584e+05  4.2097185269215971e+05  3.3714593575142941e+05  2.6991730594407377e+05  3.7117524762537942e+05  4.4020871355532220e+05  6.6661200000000000e+05  4.1079441266214219e+05  2.4126180923753465e+05  2.4132828623262860e+05  3.4592563677898725e+05  2.2477539369593374e+05  2.7553950269429962e+05  4.3947016253073106e+05  2.6787101428037480e+05  4.1199731998144620e+05  6.6661200000000000e+05  6.6661200000000000e+05  4.4922379285524978e+05  6.6661200000000000e+05  4.3192341659849056e+05  4.1616040265883412e+05  3.4914869300249917e+05  6.6661200000000000e+05  6.6661200000000000e+05  6.6661200000000000e+05  4.0697975973524246e+05  2.7989498923932225e+05  2.4257732852776800e+05  6.6661200000000000e+05  6.6661200000000000e+05  4.1479317486020952e+05  6.6661200000000000e+05  6.6661200000000000e+05  6.6661200000000000e+05  6.6661200000000000e+05  4.2589710910792369e+05  6.6661200000000000e+05  6.6661200000000000e+05  4.4778698210546293e+05  3.8133274794011301e+05  4.1927902785843459e+05  3.8101608134805539e+05  2.7829379916657606e+05  4.1608682727767207e+05  6.6661200000000000e+05  2.6810093997296342e+05  2.6400626313275157e+05  4.2325648018529569e+05  4.1381154500240786e+05  3.5313433486424794e+05  6.6661200000000000e+05  1.5950933159150838e+05  2.2141993993695301e+05  1.8330579142423012e+05  2.2225074338917018e+05  3.9342958294580347e+05  6.6661200000000000e+05  4.2501611761477124e+05  1.8680641279849396e+05  2.4565673393898219e+05  2.3750014609587318e+05  1.7826496108402940e+05  2.0051833096916729e+05  1.9553589695240330e+05  1.9329194061938935e+05  1.5662895865061152e+05  6.6661200000000000e+05  6.6661200000000000e+05  6.6661200000000000e+05  4.3605668280543067e+05  3.3359941629367712e+05  6.6661200000000000e+05  6.6661200000000000e+05  6.6661200000000000e+05  2.0534083972108003e+05  1.4796563607224572e+05  2.1001758553265940e+05  2.3684299418343315e+05  4.0017777845569834e+05  3.2569012094755640e+05  4.3226345227216580e+05  3.2761590103563172e+05  4.4287631179309497e+05  3.5582520682906406e+05  6.6661200000000000e+05  6.6661200000000000e+05  4.5984302268490952e+05  6.6661200000000000e+05  6.6661200000000000e+05  6.6661200000000000e+05  4.4402489698041003e+05  3.3561698704788135e+05  4.2891925599872402e+05  4.0335316077144479e+05  4.6675586190361611e+05  6.6661200000000000e+05  4.4407257831417257e+05  3.6728278957841790e+05  2.8494564358797646e+05  2.2154696656761080e+05  2.0858173131512917e+05  2.7717998750243377e+05  2.4677751266885869e+05  1.9915856874124269e+05  4.3277309290076990e+05  2.7193960560734669e+05  4.3422942020808021e+05  3.8587651177189162e+05  6.6661200000000000e+05  6.6661200000000000e+05  6.6661200000000000e+05  4.7147103221308021e+05  2.1530601794743913e+05  3.0933923995339236e+05  2.2031217650787576e+05  3.5431794729685521e+05  4.2095920552883041e+05  2.8268112253360741e+05  4.6062055769496207e+05  3.0689711602693214e+05  6.6661200000000000e+05  3.4600854344935931e+05  2.9337998006161145e+05  2.1518373230917039e+05  3.9994754176046798e+05  2.5040903145367285e+05  1.9202316410382051e+05  1.4549759050894080e+05  1.4222053128534203e+05  2.6438152805371396e+05  1.8735604151622215e+05  2.4877417515331932e+05  1.5046487006096379e+05  1.9998859704586118e+05  2.1233918927502044e+05  1.7124133281825160e+05  6.6661200000000000e+05  6.6661200000000000e+05  4.0397047899999184e+05  6.6661200000000000e+05  2.4944882819565243e+05  2.1067476948133874e+05  2.0975082740839836e+05  1.7878863626176593e+05  4.6907094147964136e+05  6.6661200000000000e+05  2.6583382592764584e+05  2.2451583319627561e+05  1.9241762700775857e+05  1.4375661804641294e+05  2.5983371119189161e+05  1.7706615480382307e+05  2.4186241567595056e+05  2.0014465383261809e+05  6.6661200000000000e+05  4.4560293952687306e+05  4.2256661250491516e+05  6.6661200000000000e+05  1.5437446050899205e+05  1.5149484464363518e+05  1.9428306100326215e+05  2.8533776983605162e+05  2.2344305176221154e+05  1.9989378087552852e+05  2.3208602975250717e+05  1.8703728891193049e+05  2.6772030337875115e+05  2.7262859743713069e+05  1.9946588049089452e+05  3.6405786900356901e+05  2.5020251166972381e+05  6.6661200000000000e+05  6.6661200000000000e+05  6.6661200000000000e+05  1.2456407758932491e+05  2.0133962627014943e+05  2.3351881881270019e+05  3.0872595578712353e+05  4.4098196237875422e+05  6.6661200000000000e+05  3.7813483278652950e+05  4.4169426803313417e+05  4.4938837462054647e+05  2.7956281406205200e+05  3.3460372646491858e+05  6.6661200000000000e+05  2.5184806603692999e+05  3.7237690743909922e+05  3.3303315605578944e+05  6.6661200000000000e+05  6.6661200000000000e+05  6.6661200000000000e+05  4.6446462347017747e+05  3.9029334817173978e+05  2.5390969155172812e+05  6.6661200000000000e+05  6.6661200000000000e+05  3.8447723478198273e+05  6.6661200000000000e+05  6.6661200000000000e+05  1.5509082026779535e+05  4.2405662164209166e+05  2.7335147056911699e+05  4.4096344647186605e+05  3.2979346120930277e+05  3.7181978950514202e+05  6.6661200000000000e+05  1.9353939703251599e+05  2.6130882334273058e+05  6.6661200000000000e+05  6.6661200000000000e+05  6.6661200000000000e+05  6.6661200000000000e+05  4.2965560952028510e+05  4.2784284043941560e+05  2.8875686165581789e+05  3.7567499953873508e+05  6.6661200000000000e+05  6.6661200000000000e+05  4.4926308940659056e+05  1.3850617132146945e+05  1.9577301377238793e+05  1.4263734474326411e+05  6.6661200000000000e+05  3.3500598713637219e+05  2.8346518605458492e+05  2.1211739897769823e+05  1.9989903501755543e+05  2.7827631411375618e+05  6.6661200000000000e+05  6.6661200000000000e+05  1.7712606685636067e+05  4.5357398146296019e+05  3.5822423369774985e+05  4.1795461119645083e+05  4.4430595963775803e+05  6.6661200000000000e+05  3.7441946947003831e+05  6.6661200000000000e+05  6.6661200000000000e+05  4.4259201475907827e+05  6.6661200000000000e+05  6.6661200000000000e+05  3.8103736436948169e+05  6.6661200000000000e+05  6.6661200000000000e+05  6.6661200000000000e+05  4.1536312118390371e+05  6.6661200000000000e+05  6.6661200000000000e+05  6.6661200000000000e+05  4.4137676825673145e+05  2.1425768835619051e+05  1.5743336281969555e+05  6.6661200000000000e+05  4.2265886359853600e+05  6.6661200000000000e+05  6.6661200000000000e+05  3.5456294903622684e+05  2.6988974733245437e+05  2.4286215184898509e+05  3.0009303294863354e+05  1.2668895835071657e+05  1.2801558347498013e+05  1.4800002564686735e+05  6.6661200000000000e+05  4.0425967742846487e+05  3.8413051176966412e+05  2.5287809227536782e+05  6.6661200000000000e+05  4.5982348194512253e+05  6.6661200000000000e+05  6.6661200000000000e+05  1.7345328331344135e+05  2.1406631719305879e+05  1.5781676094096169e+05  6.6661200000000000e+05  3.4456361746031436e+05  6.6661200000000000e+05  6.6661200000000000e+05  2.7225425620216795e+05  2.1822516286782111e+05  4.3126198130361730e+05  3.7774829600839526e+05  2.5581887688498010e+05  3.2397302753735153e+05  2.4122480679535892e+05  4.3109411755859549e+05  3.6350388099092973e+05  4.1078445269112737e+05  6.6661200000000000e+05  6.6661200000000000e+05  4.3682855586162285e+05  3.4939730282354087e+05  2.4744308971304222e+05  2.4182025477834960e+05  6.6661200000000000e+05  6.6661200000000000e+05  6.6661200000000000e+05  4.4672154967759573e+05  6.6661200000000000e+05  2.5299701926149812e+05  2.3125773856029846e+05  6.6661200000000000e+05  6.6661200000000000e+05  2.7737366269292787e+05  1.4428488938012428e+05  1.3320030229041903e+05  1.3589839857213368e+05  1.5659902040119245e+05  6.6661200000000000e+05  4.3335007166501589e+05  6.6661200000000000e+05  2.7981693085881427e+05  4.0145024870270927e+05  4.4188449439163628e+05  2.7491402480069379e+05  4.3797067920343077e+05  3.7688415540552087e+05  6.6661200000000000e+05  6.6661200000000000e+05  2.5450595947079119e+05  2.8119069855906157e+05  2.5285064009314170e+05  4.3970369952886848e+05  2.6886498511454312e+05  3.6233343075182184e+05  3.0530787354187574e+05  1.9109851002413279e+05  2.6703456287416338e+05  3.0995403961235197e+05  3.8296700779235829e+05  4.1660499307229649e+05  1.5870157430294258e+05  6.6661200000000000e+05  3.4709364262561215e+05  4.1622473271423363e+05  6.6661200000000000e+05  6.6661200000000000e+05  1.7510757893451155e+05  6.6661200000000000e+05  6.6661200000000000e+05  3.6967047918210598e+05  4.5965471942978830e+05  6.6661200000000000e+05  6.6661200000000000e+05  6.6661200000000000e+05  6.6661200000000000e+05  6.6661200000000000e+05  6.6661200000000000e+05  6.6661200000000000e+05  6.6661200000000000e+05  4.3414537070140790e+05  6.6661200000000000e+05  6.6661200000000000e+05  2.9044765233148372e+05  4.3543210876099207e+05  2.9512061519164557e+05  6.6661200000000000e+05  1.8895176276945692e+05  6.6661200000000000e+05  6.6661200000000000e+05  6.6661200000000000e+05  4.4012108663888270e+05  6.6661200000000000e+05  3.9618716783371236e+05  4.0924950297125237e+05  4.0698959295918781e+05  3.0789225536192115e+05  4.5153501212512096e+05  4.1681571083454438e+05  6.6661200000000000e+05  6.6661200000000000e+05  4.1673118453019788e+05  4.5674754152628453e+05  4.4265092159141356e+05  6.6661200000000000e+05  4.3581007137680368e+05  6.6661200000000000e+05  6.6661200000000000e+05  1.4915977968185875e+05  6.6661200000000000e+05  3.8118731900724402e+05  1.4394382269927964e+05  2.6052517939271100e+05  4.1448207151143183e+05  2.8511227443809225e+05  2.5872211331152843e+05  2.7914794761929003e+05  6.6661200000000000e+05  6.6661200000000000e+05  3.3994219438221899e+05  6.6661200000000000e+05  6.6661200000000000e+05  2.0452435782162528e+05  1.4923522549999569e+05  1.8830797377029259e+05  1.3926076679468452e+05  6.6661200000000000e+05  6.6661200000000000e+05  4.6395482208590576e+05  6.6661200000000000e+05  6.6661200000000000e+05  2.0612431500201809e+05  1.4626977951033652e+05  3.9562322837237502e+05  3.1431551738593075e+05  6.6661200000000000e+05  6.6661200000000000e+05  3.4459366616095067e+05  6.6661200000000000e+05  4.4282370673258195e+05  3.2614368068008730e+05  6.6661200000000000e+05  6.6661200000000000e+05  4.2583248735787260e+05  6.6661200000000000e+05  6.6661200000000000e+05  4.5097393087077886e+05  6.6661200000000000e+05  6.6661200000000000e+05  6.6661200000000000e+05  6.6661200000000000e+05  6.6661200000000000e+05  4.3184942358643806e+05  6.6661200000000000e+05  6.6661200000000000e+05  6.6661200000000000e+05  6.6661200000000000e+05  6.6661200000000000e+05  6.6661200000000000e+05  6.6661200000000000e+05  4.1907914116336423e+05  3.2834866290478228e+05  1.2569256836711922e+05  1.3937702484772331e+05  1.1422469084571535e+05  3.7054926181582670e+05  2.6728241514780256e+05  6.6661200000000000e+05  6.6661200000000000e+05  6.6661200000000000e+05  3.7675177864953916e+05  2.9834058680540405e+05  6.6661200000000000e+05  6.6661200000000000e+05  6.6661200000000000e+05  1.9946819123714522e+05  6.6661200000000000e+05  2.8556447312480450e+05  2.7395600465859409e+05  3.9716254359313159e+05  6.6661200000000000e+05  2.6856771870165982e+05  1.3052243616447761e+05  6.6661200000000000e+05  6.6661200000000000e+05  6.6661200000000000e+05  6.6661200000000000e+05  6.6661200000000000e+05  6.6661200000000000e+05  3.3686026686394453e+05  6.6661200000000000e+05  6.6661200000000000e+05  4.2874192448167421e+05  6.6661200000000000e+05  6.6661200000000000e+05  6.6661200000000000e+05  6.6661200000000000e+05  6.6661200000000000e+05  4.3769184258009127e+05  6.6661200000000000e+05  6.6661200000000000e+05  6.6661200000000000e+05  3.8661069488163962e+05  6.6661200000000000e+05  6.6661200000000000e+05  4.0699708730857127e+05  3.9255158304069331e+05  6.6661200000000000e+05  4.3767941447568062e+05  4.5911559896038077e+05  4.1369765612784610e+05  4.5302619073974201e+05  6.6661200000000000e+05  3.5338890996488428e+05  4.3069779476832313e+05  6.6661200000000000e+05  6.6661200000000000e+05  6.6661200000000000e+05  4.2458876407279092e+05  6.6661200000000000e+05  6.6661200000000000e+05  1.5723942339320318e+05  6.6661200000000000e+05  6.6661200000000000e+05  4.3226171805161121e+05  6.6661200000000000e+05  4.4981622330260702e+05  4.6771988676998648e+05  6.6661200000000000e+05  3.9357937591165683e+05  1.2290996448695578e+05  6.6661200000000000e+05  6.6661200000000000e+05  6.6661200000000000e+05  6.6661200000000000e+05  6.6661200000000000e+05  4.5072942146307125e+05  2.9245750650265836e+05  2.2553046351228975e+05  6.6661200000000000e+05  6.6661200000000000e+05  6.6661200000000000e+05  4.1503406490239705e+05  6.6661200000000000e+05  6.6661200000000000e+05  3.6505828892916412e+05  6.6661200000000000e+05  6.6661200000000000e+05  6.6661200000000000e+05  6.6661200000000000e+05  4.6224722004482237e+05  6.6661200000000000e+05  6.6661200000000000e+05  2.5695079251017689e+05  2.7622173425533361e+05  6.6661200000000000e+05  6.6661200000000000e+05  1.8824455825084849e+05  6.6661200000000000e+05  4.4802361393872171e+05  3.3772504331990326e+05  6.6661200000000000e+05  3.2969732931037707e+05  6.6661200000000000e+05  6.6661200000000000e+05  6.6661200000000000e+05  6.6661200000000000e+05  6.6661200000000000e+05  6.6661200000000000e+05  6.6661200000000000e+05  6.6661200000000000e+05  6.6661200000000000e+05  6.6661200000000000e+05  6.6661200000000000e+05  2.8851695163495454e+05  6.6661200000000000e+05  4.5493674758230668e+05  6.6661200000000000e+05  1.2288867790711207e+05  6.6661200000000000e+05  4.1749777775969118e+05  6.6661200000000000e+05  6.6661200000000000e+05  6.6661200000000000e+05  4.1299015623776306e+05  6.6661200000000000e+05  6.6661200000000000e+05  6.6661200000000000e+05  6.6661200000000000e+05  3.7296534208184434e+05  6.6661200000000000e+05  2.4034580153522367e+05  4.3391094297036744e+05  6.6661200000000000e+05  6.6661200000000000e+05  6.6661200000000000e+05  6.6661200000000000e+05  6.6661200000000000e+05  4.2834779483965400e+05  6.6661200000000000e+05  4.4761453939258034e+05  6.6661200000000000e+05  6.6661200000000000e+05  2.5241172026039098e+05  6.6661200000000000e+05  6.6661200000000000e+05  6.6661200000000000e+05  2.0688981239323423e+05  3.8897662675847707e+05  6.6661200000000000e+05  1.7743843117133778e+05  3.5858515977577871e+05  6.6661200000000000e+05  6.6661200000000000e+05  1.8834043870253459e+05  6.6661200000000000e+05  6.6661200000000000e+05  6.6661200000000000e+05  6.6661200000000000e+05  4.5714238224837184e+05  2.7554487161704688e+05  2.1029894308384779e+05  6.6661200000000000e+05  6.6661200000000000e+05  6.6661200000000000e+05  2.5441743324736683e+05  6.6661200000000000e+05  6.6661200000000000e+05  6.6661200000000000e+05  6.6661200000000000e+05  6.6661200000000000e+05  2.6189823786252079e+05  6.6661200000000000e+05  6.6661200000000000e+05  2.6800321623737912e+05  3.6424986545861763e+05  3.5974065847934113e+05  6.6661200000000000e+05  6.6661200000000000e+05  2.6237705758807855e+05  6.6661200000000000e+05  6.6661200000000000e+05  6.6661200000000000e+05  6.6661200000000000e+05  6.6661200000000000e+05  4.1733192026797106e+05  6.6661200000000000e+05  6.6661200000000000e+05  6.6661200000000000e+05  4.0680366323731351e+05  6.6661200000000000e+05  6.6661200000000000e+05  6.6661200000000000e+05  6.6661200000000000e+05  6.6661200000000000e+05  3.3252229305016319e+05  6.6661200000000000e+05  2.6682269594599871e+05  4.1779850479572080e+05  6.6661200000000000e+05  2.2686407298901034e+05  6.6661200000000000e+05  6.6661200000000000e+05  6.6661200000000000e+05  6.6661200000000000e+05  6.6661200000000000e+05  4.2827744273263874e+05  6.6661200000000000e+05  6.6661200000000000e+05  4.5870009371455311e+05  6.6661200000000000e+05  6.6661200000000000e+05  6.6661200000000000e+05  6.6661200000000000e+05  6.6661200000000000e+05  6.6661200000000000e+05  6.6661200000000000e+05  2.6947049182158581e+05  6.6661200000000000e+05  4.5890394522969646e+05  6.6661200000000000e+05  6.6661200000000000e+05  6.6661200000000000e+05  6.6661200000000000e+05  6.6661200000000000e+05  6.6661200000000000e+05  2.0049574225638487e+05  6.6661200000000000e+05  2.3439361117778308e+05  6.6661200000000000e+05  6.6661200000000000e+05  6.6661200000000000e+05  6.6661200000000000e+05  4.3311475169774349e+05  2.9584929257001763e+05  6.6661200000000000e+05  6.6661200000000000e+05  6.6661200000000000e+05  6.6661200000000000e+05  6.6661200000000000e+05  6.6661200000000000e+05  6.6661200000000000e+05  6.6661200000000000e+05  6.6661200000000000e+05  6.6661200000000000e+05  6.6661200000000000e+05  4.4225921766095818e+05  6.6661200000000000e+05  4.4241256552141503e+05  6.6661200000000000e+05  6.6661200000000000e+05  6.6661200000000000e+05  6.6661200000000000e+05  6.6661200000000000e+05  6.6661200000000000e+05  6.6661200000000000e+05  6.6661200000000000e+05  6.6661200000000000e+05  6.6661200000000000e+05  6.6661200000000000e+05  6.6661200000000000e+05  6.6661200000000000e+05  6.6661200000000000e+05  6.6661200000000000e+05  </DataArray> 
</PointData> 
</Piece>
</UnstructuredGrid>
</VTKFile>