<?xml version="1.0"?>
<VTKFile type="UnstructuredGrid"  version="0.1"  >
<UnstructuredGrid>
<Piece  NumberOfPoints="1817" NumberOfCells="9312">
<Points>
<DataArray  type="Float64"  NumberOfComponents="3"  format="ascii">0.02938995284315388 -0.0136679756789104 0.02673285777527354  0.02681976221137051 -0.003737491089159983 0.02747750653772505  0.02706035746866619 -0.009367318357092105 0.03236281067270289  0.03288234665213677 -0.007431054601494377 0.0266360633201442  0.003698821809952194 0.0335903778484055 0.004992024679751792  -0.0007521112945860994 0.03940266883348691 0.008325810656543704  0.002566918039295191 0.02995101740719476 0.01425766948000028  0.007553236948426459 0.03513175479320935 0.0118822570408348  -0.002078944247443501 -0.02313843026846676 -0.01100127095907582  -0.001694647538274905 -0.02950408653371194 -0.01323176742879865  -0.003620867321218379 -0.02794458553319124 -0.01951683004794185  0.002989135858479352 -0.02382597721284684 -0.02008295920777059  -0.001669376437255833 0.03740303726288106 0.03273501666082076  -0.007701272310090918 0.03521861441316677 0.02489263596660178  -0.005305792877928358 0.04067833167532503 0.02808110625993959  -0.0009771982995461664 0.03483436186521859 0.02548623160694322  0.01927861670456099 -0.01860113635763431 0.01239209925677468  0.02343426944139253 -0.02440436032980614 0.01342057863509016  0.01779734436186559 -0.0260885712868849 0.01718811240782415  0.01355111064759709 -0.02303870608956097 0.01214671114678361  0.01919666180862103 0.01992077546184821 0.03256181444488077  0.01801025516345352 0.01978952656760287 0.02481075063552116  0.01337670068385663 0.01673388284961768 0.02927628689019504  0.01363588034812261 0.02493656512447836 0.03107051019170506  0.02789255331009869 -0.02269238220026804 -0.006254055199513909  0.023965947965991 -0.01990657261349019 -0.0107529914690117  0.03271816520566032 -0.02308226477476803 -0.01246931438854049  0.02531342439916274 -0.02703038303122378 -0.01269653876781141  0.02951615073567333 0.03076318876699061 0.02537726182337758  0.02507300265104247 0.02194319874591969 0.02812527895753868  0.03203223635018136 0.02605000937852905 0.02766704684254402  0.02480641856846424 0.0322605890236552 0.02843733985928624  0.0007893252596732738 -0.0351230829599929 -0.01095137292862943  -0.002848154713034668 -0.03734916398713345 -0.000545865363151737  -0.004539818001995003 -0.03883203148079533 -0.01006403210202467  0.002999965224993861 -0.04077964760215488 -0.006075728202322641  -0.02404098404278442 -0.0236782501479874 0.02159163833835182  -0.01797887786371784 -0.01932501855241861 0.02200484500376214  -0.01372254702658833 -0.02504547912304717 0.02387082510357373  -0.01683792204347405 -0.02379637293956666 0.01625792297289273  -0.01018191328416512 0.001505356669926612 -0.006455056201948704  -0.005680700667494112 0.005639414431766304 0.0003999327022914129  -0.01006227646513344 -0.001069401566727433 0.0004947651655797846  7.739677787364091e-06 9.283876507674288e-06 1.575906046217407e-06  0.01957205612450124 0.004363102666939702 -0.03530506291472943  0.0251405149814157 0.008999740490978595 -0.03333472940483163  0.02682572857886023 0.00363269099878619 -0.0417053132834245  0.02032308706944927 0.01033993710908965 -0.03763173831765971  0.02537359871229086 -0.01991033953819234 0.02733979795734311  0.02375488981200294 -0.02554771493500636 0.03551011595418507  0.02531992124808332 -0.01620481792891849 0.03283172141108258  0.01773585767433237 -0.02063697305376089 0.03221031097056774  -0.01994576776224282 0.03350555872062488 0.03075660043255137  -0.02100928988330773 0.02714554135495716 0.0243633541561136  -0.01411718778370093 0.0254158596857119 0.02818540667114928  -0.02032756181060337 0.02283124791400617 0.0316654738188327  0.001955423614588941 0.0209051058190635 0.02267237862322708  -0.001189457349817245 0.020833759234364 0.01546442094611624  0.003910047874186692 0.01669745945596119 0.01757081292023436  -0.003827124456346171 0.01398471153171389 0.01911167950121615  -0.01616866854940036 -0.0007913896652885768 -0.03210355788966805  -0.02117596994140506 0.001090496434229258 -0.03680666392184308  -0.01625402412832608 0.008213416036186961 -0.0304936282176236  -0.01421908790288069 0.004669692253483379 -0.03615966104751715  0.006389202599098592 -0.02159073543574954 -0.005125018080119895  0.01345198413595899 -0.02684512442406587 -0.00815859941792944  0.009903696765369834 -0.02190601905635492 -0.01472929360694688  0.01265576221258579 -0.01948550686277312 -0.003510678928099968  -0.03399196760820982 -0.009290425246393872 0.02382515184641549  -0.02844246433991881 -0.009827121963576083 0.02925959097123846  -0.03851754957609926 -0.006075992643791994 0.03105208505026351  -0.0369428084691921 -0.01546161737547556 0.0292977142780173  -0.03503509591380072 0.03201285313171555 0.01486133812256941  -0.03626618467450587 0.03294617349746852 0.008439567383818319  -0.03508972962579299 0.02357130269613856 0.007478060975626725  -0.03994335018868587 0.0277337125655313 0.01015260873687947  -0.01630748655484758 0.002782803779303957 -0.007120068990265419  -0.02054619813078202 0.003189708563733476 -0.002487087909705242  -0.01663067947281158 -0.003652216708383879 -0.005470294910372289  -0.02162500899662211 -0.01129239899517572 0.01399081939122607  -0.01694562925712915 -0.01548990578100394 0.01579628555606229  -0.01660174032167039 -0.00710412636040934 0.01455179695537825  -0.02187986918854373 -0.006770702399759211 0.01870936495287872  0.0107164663186178 0.005658618338879879 0.0483274553068987  0.01575062393408682 0.01032859249396027 0.04602223411861867  0.008970301332403785 0.007233968348220392 0.04252095465172664  0.008791567776461454 0.01340063560911193 0.04718994387163494  0.01754942784258023 -0.01113955686757485 0.04515060939108535  0.013777386229505 -0.008240149433399006 0.0363955625646297  0.01788512606755171 -0.01359912101283891 0.03549530290351051  0.0139158538587918 -0.01565996936649817 0.04525982221429038  0.04022692418732206 -0.005985160425320656 -0.01531505163305869  0.04615720027140097 -0.0009192915721608876 -0.01893954594667299  0.04845362056398184 -0.004404977724671424 -0.01061449605784999  0.04673457495098782 -0.01074510564513841 -0.01329315111051805  0.002767390992372336 0.03993965956328163 0.02956024060355609  0.002132324031974865 0.04320857861331986 0.024549310636635  -0.01001145893802725 0.01666243846444911 0.006351457482112794  -0.01064280758312121 0.009469057734208353 0.0053926012174388  -0.01561793832987728 0.01600528743679483 0.01069468976723495  -0.01676271400689652 0.01172846107175418 0.005878800190860306  -0.006942313012529152 -0.03390658132664682 -0.02331132387928797  -0.01480401459874743 -0.03089890877099156 -0.02771906441713023  -0.01537085467357095 -0.0315042595878712 -0.02041274959194742  -0.009243236586271582 -0.02521503621576023 -0.02540321093669872  0.0007770452992068399 0.01862504469229483 -0.00112464881400005  -0.0006998702379482431 0.02597833966032345 0.004638477281551144  -0.003746709964375236 0.02034828833703153 0.006319153510625501  0.005182864609456867 0.02302562980156545 0.005331527073073619  -0.001446637908116513 -0.03098291551907185 -0.0001984149675810613  0.001715584835615862 -0.03491557562057454 0.003942674567072522  -0.003735340813012704 -0.03710697558047266 0.006709600831051168  0.001686201489640878 0.02857189513481715 -0.0009638003374118891  0.006120273576669979 0.02809491086616652 -0.008663555313135495  0.005175561996249584 0.02017819551931311 -0.007035565548934493  -0.001370834293854032 0.02375977073685078 -0.008043125893031544  -0.04219282342097631 0.003272172891759368 0.008898074470031396  -0.03532772274198783 0.006625258504155352 0.01584277146685482  -0.03541224407308816 -0.000295098620632735 0.007299388912198237  -0.03904796821286197 0.008883470066316779 0.006635151882311032  -0.01579307038534343 0.03741075085625049 -0.0003667610555963012  -0.02083439882455114 0.04526966169912561 0.001263847496641492  -0.01689669460821763 0.04653557461710025 0.004938515615449469  -0.01798812686344351 0.04616347048445266 -0.004406820800892772  -0.01731884705951622 0.03105563196195502 -0.02285134300868762  -0.01610226400818789 0.02992170764579845 -0.01587800957089644  -0.02236741548023656 0.03448842123288497 -0.01571532103154405  -0.02283793897967036 0.02777252040147801 -0.01621787078175478  -0.01657360512172383 0.001571357707490363 -0.04132824235497511  -0.01537144335316569 0.004032945006536229 -0.04718939037186734  -0.008362782526720965 0.00815614734424417 -0.04058668435909658  -0.01077043695978523 -0.00154503839504916 -0.0402939492881117  -0.0279720562057537 -0.002926724930360757 0.0328387793379074  -0.02462479506770636 0.002123091896245322 0.02683188210779087  -0.02293123114892822 0.002249782503951037 0.03372945381065924  -0.02085614232970927 -0.005844708354344244 0.02854283460676237  0.01649483627263402 -0.01018725271669208 -0.008871078350301561  0.01911100352347902 -0.01195505517019833 -0.01613302531280792  0.01438866782362013 -0.01447302825009217 -0.01290392928019593  0.01690560252736207 -0.003936200974936591 -0.0154656272554057  -0.04279941264645681 -0.006932386327179905 -0.02444033294054596  -0.04029135852674857 -0.002647214749075429 -0.01563025376175822  -0.04406156133188624 -0.010925196367893 -0.02021508834907933  -0.03546120473253005 -0.008791915887162639 -0.01563977756385014  -0.007696940959345691 -0.004798154130841129 0.0142162268069581  -0.01156773892941709 -0.01133879216995038 0.01692311108014466  -0.01170209882584687 -0.009118740906011787 0.01040571097318386  -0.002089259076267455 -0.01030248795565723 0.01223237526994278  -0.01070881508195239 0.03759205234217235 0.03070640452455393  -0.01405894210446639 0.03291854457765971 0.02483887127933719  -0.01453895751044895 0.03380118541468879 0.03352385316880172  -0.01857130710232299 0.001870734810705499 0.04620153226412085  -0.01596666622024333 -0.004563860487305187 0.03991533626341932  -0.02211629342323457 -0.00737209780774486 0.04423258684646914  -0.02409431352765638 0.001693993504860348 0.04347964009594051
[...]
<PointData  Scalars="f_230"> 
<DataArray  type="Float64"  Name="f_230"  format="ascii">4.3304453611420986e+05  3.6556326964924979e+05  4.5946465061296738e+05  4.5784790107087127e+05  2.8426520125837513e+05  3.9346777681258612e+05  2.7441882562229974e+05  3.4956679643588897e+05  1.9571111384951137e+05  2.6528994322065177e+05  2.8901160028443171e+05  2.5035639192030151e+05  6.6661200000000000e+05  4.7798047213329753e+05  6.6661200000000000e+05  4.6127752851144946e+05  2.3192096820505016e+05  3.2360071121940337e+05  3.1649789373834414e+05  2.2904543928086953e+05  4.5464223634472716e+05  3.2717753308284690e+05  3.2277288739421515e+05  4.3462046937144391e+05  3.2672541223085154e+05  2.7284967114738195e+05  4.2645764181545755e+05  3.6949122495017067e+05  6.6661200000000000e+05  4.7610442601446511e+05  6.6661200000000000e+05  6.6661200000000000e+05  3.2926500972493133e+05  3.4109295639437507e+05  3.9366527848534583e+05  4.1392506149050995e+05  3.9316318587791396e+05  2.8974469770493801e+05  3.3804255608930788e+05  2.7473013065586344e+05  1.2401207927473227e+05  1.1445700395277666e+05  1.1787666621900526e+05  1.0702456151462725e+05  3.9846872264539340e+05  4.4957145512483403e+05  6.6661200000000000e+05  4.8465588308592426e+05  4.4247071662241023e+05  6.6661200000000000e+05  5.0249481307337445e+05  4.3888768178003706e+05  6.6661200000000000e+05  4.3676879199788166e+05  3.9897493826799362e+05  4.8661610232926661e+05  2.4447152105276485e+05  1.9562371066375604e+05  1.8708311834245306e+05  1.8132559642707085e+05  3.1628551303688867e+05  4.4598416882551857e+05  3.0733645257418288e+05  3.7562611716594675e+05  1.7605170892518514e+05  2.4752378199387292e+05  2.1662563522300124e+05  1.7805030026375395e+05  4.4858722445241536e+05  4.3317616508199566e+05  6.6661200000000000e+05  6.6661200000000000e+05  6.6661200000000000e+05  6.6661200000000000e+05  4.5392173871265311e+05  6.6661200000000000e+05  1.4639378026858444e+05  1.6158746364755352e+05  1.4594785189141490e+05  2.1663448643551421e+05  2.1494645767613905e+05  1.7758680304412390e+05  2.3232160506529559e+05  6.6661200000000000e+05  6.6661200000000000e+05  4.8558199946500832e+05  6.6661200000000000e+05  6.6661200000000000e+05  3.7927900985953200e+05  4.3148594849921908e+05  6.6661200000000000e+05  4.6777287677714799e+05  6.6661200000000000e+05  6.6661200000000000e+05  6.6661200000000000e+05  6.6661200000000000e+05  6.6661200000000000e+05  1.5873336220897632e+05  1.3405216774748039e+05  1.8783525237241719e+05  1.6331813015577407e+05  4.2687044082971814e+05  4.9006937265710230e+05  3.9813666789230448e+05  3.3153816805765848e+05  1.4898278438459372e+05  2.0112727789711676e+05  1.6528579952434942e+05  1.8305764919581730e+05  2.4807587941289099e+05  3.0280852087966120e+05  3.4791874047056976e+05  2.2045149914946011e+05  2.3478893732602854e+05  1.6815911602500413e+05  1.9157520084012143e+05  4.6071514859736111e+05  3.7001170527416485e+05  3.1802520286364737e+05  3.9761255446079653e+05  4.0019944690281997e+05  6.6661200000000000e+05  6.6661200000000000e+05  6.6661200000000000e+05  4.4098993858447549e+05  3.4549668654954899e+05  4.9269895035093068e+05  3.8280284942902258e+05  5.0047990512951848e+05  6.6661200000000000e+05  4.3650766704557056e+05  4.2350448666164471e+05  4.6395310355549655e+05  3.2504662393664656e+05  4.0261932718959596e+05  3.1455423712107039e+05  1.6507269395504612e+05  2.1169723965190552e+05  1.8358625457246113e+05  1.7602132422715690e+05  6.6661200000000000e+05  4.6733757396261615e+05  6.6661200000000000e+05  3.8213449626603391e+05  1.4140222679647428e+05  1.7944930571002071e+05  1.4846646625116564e+05  1.3702131097122526e+05  6.6661200000000000e+05  4.7166854347228113e+05  6.6661200000000000e+05  6.6661200000000000e+05  4.5822743014338106e+05  6.6661200000000000e+05  6.6661200000000000e+05  2.9633218010279501e+05  2.6740572629726515e+05  3.1760145910647931e+05  2.3309029884100982e+05  4.4265804620288673e+05  6.6661200000000000e+05  6.6661200000000000e+05  6.6661200000000000e+05  2.3174790061138960e+05  2.9597030376095336e+05  2.4643806656822955e+05  1.9555071364831802e+05  6.6661200000000000e+05  6.6661200000000000e+05  6.6661200000000000e+05  4.6397287084361812e+05  6.6661200000000000e+05  4.3970362123471953e+05  6.6661200000000000e+05  6.6661200000000000e+05  6.6661200000000000e+05  6.6661200000000000e+05  6.6661200000000000e+05  6.6661200000000000e+05  2.0607491544155145e+05  1.6956764948078062e+05  1.1943896196024188e+05  1.1540055161555043e+05  1.1564769084729225e+05  1.3181001414372271e+05  4.9116313364404108e+05  4.4016429532074573e+05  6.6661200000000000e+05  4.6156542439012107e+05  6.6661200000000000e+05  4.7665517141559237e+05  6.6661200000000000e+05  4.7907040064728301e+05  4.3695968990155356e+05  3.0644756758382008e+05  4.1664151834484685e+05  1.3447861991597980e+05  1.5768454893492587e+05  1.7288114118725987e+05  1.6155976240279523e+05  1.3701393445742183e+05  1.2928621461720958e+05  1.2236699331480249e+05  1.3596798145674099e+05  1.6783310785714048e+05  1.8852070490561094e+05  1.9822154189333509e+05  1.7655334486266959e+05  1.8129166065987441e+05  1.6380716681102433e+05  2.0006310506537498e+05  1.8971556087384879e+05  4.3524759112873342e+05  4.2584790635806631e+05  3.2429047049373318e+05  2.8852192810877337e+05  6.6661200000000000e+05  4.3912742508844269e+05  3.9965352800288767e+05  1.6589152042296328e+05  1.9256557035210094e+05  1.8062296335067079e+05  1.3712006805792043e+05  4.3015145339103875e+05  5.0475912840060284e+05  3.4314477127570676e+05  1.9114473730449445e+05  2.1738181406770868e+05  2.6325230484228686e+05  4.5102315943519544e+05  6.6661200000000000e+05  3.7060883971135831e+05  2.8014577947320795e+05  3.4060337544523575e+05  2.9114556581957842e+05  6.6661200000000000e+05  4.3399377364406909e+05  4.8502759558749892e+05  3.6227548581788479e+05  4.5303875345696090e+05  4.3260722213088098e+05  4.7094845904454024e+05  6.6661200000000000e+05  4.6001505997995049e+05  6.6661200000000000e+05  4.6211360973979044e+05  3.9602283395057602e+05  4.1482867700704106e+05  4.7811804109399335e+05  3.1310491237962170e+05  2.8431587677609693e+05  2.6423570356252074e+05  4.0730651732877642e+05  1.4726201688818022e+05  1.6237921688764120e+05  1.6933113757232929e+05  1.6516369268170884e+05  2.8427217787724000e+05  2.5876686615749347e+05  2.9094517086588335e+05  1.8444883677366393e+05  2.8411480788341968e+05  4.1330738534892589e+05  3.7740211066191067e+05  2.7670302570895554e+05  4.4702667582109105e+05  4.2287479203296837e+05  1.8415536822117458e+05  2.5416852395679409e+05  2.1558830937407445e+05  2.0763303105810558e+05  2.4036411952458648e+05  2.0435231460887627e+05  1.9969368902381370e+05  1.8204438642601095e+05  2.0775333266590227e+05  1.7133119190515258e+05  1.6447856476057673e+05  1.8132027909473871e+05  1.5919911989668294e+05  1.8857240076459281e+05  1.5409638546681998e+05  4.6289721884097270e+05  4.1606957090207364e+05  3.8143937759968126e+05  6.6661200000000000e+05  6.6661200000000000e+05  4.5477268476811680e+05  4.6802634418254480e+05  3.5410824544370553e+05  2.7432965134220873e+05  4.1581493916587409e+05  6.6661200000000000e+05  4.9629238781185710e+05  4.3637326051833975e+05  2.7756101974325726e+05  4.4398850793658273e+05  4.3562265984934900e+05  2.6047481064563518e+05  3.0145517552200006e+05  2.4827474923589599e+05  2.4419211147053147e+05  2.9931466246291419e+05  4.5625510789148317e+05  3.4321018905091792e+05  3.7196510534499190e+05  2.3680279804558153e+05  1.3702625752979823e+05  1.5235005077865516e+05  1.3463702470340580e+05  6.6661200000000000e+05  4.7988445580957405e+05  4.1330073954292829e+05  6.6661200000000000e+05  6.6661200000000000e+05  4.2120372098479775e+05  6.6661200000000000e+05  6.6661200000000000e+05  6.6661200000000000e+05  6.6661200000000000e+05  6.6661200000000000e+05  6.6661200000000000e+05  4.9460884249964711e+05  6.6661200000000000e+05  4.8242908742706821e+05  3.9656766360565944e+05  6.6661200000000000e+05  4.4266407144246297e+05  2.8960674647263630e+05  4.4030378397304838e+05  4.8109903217615932e+05  3.4459139282781718e+05  2.4070122811278724e+05  2.9672091582591279e+05  2.1945406215810441e+05  1.8201273283404770e+05  2.0998166692238065e+05  1.5784978905330820e+05  6.6661200000000000e+05  6.6661200000000000e+05  4.5421220500200277e+05  6.6661200000000000e+05  4.2239868924229714e+05  6.6661200000000000e+05  6.6661200000000000e+05  6.6661200000000000e+05  1.5633110493833004e+05  1.6943507430641915e+05  1.6531173900766033e+05  2.0636053341963026e+05  6.6661200000000000e+05  6.6661200000000000e+05  6.6661200000000000e+05  2.7602432899745886e+05  4.6185840570966818e+05  3.8569883209513314e+05  4.4251179736369860e+05  6.6661200000000000e+05  6.6661200000000000e+05  4.3839809398940764e+05  4.8327096818974905e+05  4.4704329339709785e+05  3.5689166492179560e+05  6.6661200000000000e+05  6.6661200000000000e+05  4.3555438477234362e+05  4.9106166863061354e+05  4.2515436873866781e+05  4.6337316085977107e+05  6.6661200000000000e+05  4.7910898389680200e+05  3.2998331826542772e+05  3.1320539135423047e+05  2.7308805986095831e+05  4.7520253397874412e+05  6.6661200000000000e+05  6.6661200000000000e+05  6.6661200000000000e+05  2.2346680518702164e+05  4.3568269596138637e+05  4.8192856548982224e+05  6.6661200000000000e+05  3.9241595351379632e+05  1.3513777882719113e+05  1.5690258110473427e+05  1.2752727561944888e+05  1.3467030718934556e+05  4.4976734014563804e+05  6.6661200000000000e+05  6.6661200000000000e+05  4.5356691923552513e+05  2.7753018554910511e+05  2.1640133098081348e+05  2.4979643617393228e+05  2.4458650488992414e+05  3.1838253245825187e+05  3.3088449279829412e+05  3.1398072384121502e+05  4.3551053656432300e+05  2.6561851752296364e+05  4.0503108574428456e+05  4.6078628554947494e+05  4.1702164309960516e+05  5.0744204055196402e+05  4.7815994532947219e+05  4.4918955201394681e+05  6.6661200000000000e+05  3.9049901657914533e+05  4.8366877900849649e+05  4.2790013334731845e+05  6.6661200000000000e+05  4.6969251413198339e+05  4.5310847852105513e+05  3.1383994463045400e+05  2.5997864475278277e+05  2.2615951222285884e+05  2.6917928702248988e+05  6.6661200000000000e+05  6.6661200000000000e+05  6.6661200000000000e+05  2.6917411043326621e+05  1.9390964639705542e+05  2.6270824293524667e+05  2.7107623340412619e+05  4.0527963621833653e+05  3.7097575237207476e+05  3.1847006114106049e+05  6.6661200000000000e+05  6.6661200000000000e+05  6.6661200000000000e+05  4.0982047313380061e+05  2.9314358711635694e+05  3.3463467669359344e+05  2.8611437869165128e+05  3.9424919023158291e+05  4.6183967149627692e+05  3.0790074833494687e+05  2.0522423687215167e+05  2.2891010860771971e+05  2.6665881383710349e+05  2.8955595330898475e+05  3.4389114855379105e+05  3.1631147032862518e+05  3.0396264487465803e+05  6.6661200000000000e+05  6.6661200000000000e+05  4.5680049477619020e+05  4.7307433362323011e+05  4.7264968904617633e+05  6.6661200000000000e+05  6.6661200000000000e+05  6.6661200000000000e+05  4.5122127846423781e+05  6.6661200000000000e+05  6.6661200000000000e+05  6.6661200000000000e+05  4.8643383558773104e+05  6.6661200000000000e+05  2.2349885417256891e+05  2.9396739738421974e+05  2.0383002429912906e+05  1.8602627425069441e+05  1.9793488018150776e+05  2.1548311547551569e+05  4.8516759133011545e+05  6.6661200000000000e+05  3.9723492326849408e+05  3.2626173035306687e+05  2.6378783924750122e+05  3.0113353903118183e+05  2.2878182938996633e+05  2.0044029768303360e+05  6.6661200000000000e+05  6.6661200000000000e+05  6.6661200000000000e+05  6.6661200000000000e+05  4.0808559159955155e+05  6.6661200000000000e+05  4.7620839516009536e+05  6.6661200000000000e+05  4.1313549603373511e+05  3.1060474692346342e+05  4.9981190362794109e+05  4.6966280042638449e+05  6.6661200000000000e+05  6.6661200000000000e+05  6.6661200000000000e+05  2.5527409963018118e+05  2.0625348639727480e+05  2.0429097907776339e+05  6.6661200000000000e+05  4.7865744852944522e+05  6.6661200000000000e+05  4.6221655101043597e+05  4.3435725379990466e+05  6.6661200000000000e+05  4.5009341982590791e+05  6.6661200000000000e+05  2.1266737087912229e+05  2.8859610551477812e+05  2.4350260807289081e+05  6.6661200000000000e+05  6.6661200000000000e+05  6.6661200000000000e+05  3.3369395661918394e+05  4.8850825616543187e+05  4.5810016313090699e+05  3.9889283713542484e+05  6.6661200000000000e+05  4.8051217127438041e+05  6.6661200000000000e+05  4.7153410989565909e+05  4.4313980473460630e+05  6.6661200000000000e+05  6.6661200000000000e+05  6.6661200000000000e+05  6.6661200000000000e+05  3.7874957015571737e+05  6.6661200000000000e+05  1.8917009190415108e+05  1.9961754180630189e+05  2.1431551028870640e+05  1.4487237271807549e+05  2.1351381622835912e+05  2.4592472094004761e+05  2.8956074194759422e+05  3.0035919099228858e+05  2.0381715897673281e+05  1.8228786257293366e+05  2.1441908986776700e+05  2.6038371733315533e+05  1.1504204022493279e+05  1.3875850420601954e+05  1.3221133451238181e+05  4.3182045812667528e+05  2.7027350797199993e+05  3.8344235072985827e+05  4.8202163489542424e+05  6.6661200000000000e+05  6.6661200000000000e+05  4.6215881092785526e+05  6.6661200000000000e+05  6.6661200000000000e+05  2.6250084235223796e+05  3.0498757517850789e+05  4.3442800473684480e+05  3.9865766733660176e+05  6.6661200000000000e+05  4.5982636692261189e+05  4.2494264410287561e+05  2.0430509129309532e+05  2.3502889496159932e+05  2.7431517365433153e+05  4.8411932483041362e+05  4.5248322350957070e+05  3.6766420572261297e+05  2.4095518915705249e+05  1.6559864660783167e+05  2.1086267433135031e+05  2.8790918303945503e+05  2.6178363616415471e+05  2.5272042736759558e+05  2.7396902265400777e+05  6.6661200000000000e+05  4.4648361291830626e+05  2.5764160615543579e+05  4.1985762355953577e+05  2.7047317690285214e+05  3.5765445264071005e+05  2.6873472679856501e+05  2.3259392688942389e+05  2.1718523628059347e+05  2.5225378438601253e+05  2.2851128026734330e+05  2.8522338434939686e+05  6.6661200000000000e+05  4.9211501699197938e+05  6.6661200000000000e+05  4.4564628547747998e+05  4.4053953037104791e+05  4.5119727008672047e+05  3.1684912187363772e+05  4.2279406248769857e+05  3.6298845086109487e+05  4.7530204651401000e+05  1.1367214291801013e+05  1.1241962793337004e+05  1.1435305712860693e+05  3.2384810420113424e+05  3.1552280790016759e+05  4.2998721534494171e+05  2.1488456664561070e+05  6.6661200000000000e+05  6.6661200000000000e+05  4.5922882026157586e+05  1.7699053263094407e+05  2.2404287240813317e+05  2.0232947734729023e+05  2.4774298323820735e+05  3.0257984642478777e+05  3.0498199192503741e+05  2.3622873952472347e+05  6.6661200000000000e+05  6.6661200000000000e+05  4.5650029762205953e+05  2.0060433828376350e+05  2.7376462228079356e+05  2.1234311543516559e+05  6.6661200000000000e+05  6.6661200000000000e+05  4.1505062712005927e+05  4.8480492295213602e+05  6.6661200000000000e+05  6.6661200000000000e+05  6.6661200000000000e+05  4.8285881870771840e+05  4.1471649537157692e+05  4.8221695071222138e+05  6.6661200000000000e+05  6.6661200000000000e+05  6.6661200000000000e+05  3.8853399539932096e+05  4.6785918244480633e+05  4.8663427983425662e+05  6.6661200000000000e+05  3.7717711434690538e+05  6.6661200000000000e+05  6.6661200000000000e+05  6.6661200000000000e+05  3.9971715120355040e+05  4.9218560991098557e+05  6.6661200000000000e+05  4.4625310203266103e+05  6.6661200000000000e+05  6.6661200000000000e+05  6.6661200000000000e+05  1.2511457933309556e+05  1.2495318970110797e+05  1.3814042424906589e+05  3.5092915824249003e+05  4.2600269064694393e+05  4.8483229716576787e+05  4.7583517657627678e+05  6.6661200000000000e+05  6.6661200000000000e+05  6.6661200000000000e+05  6.6661200000000000e+05  4.3578152985394810e+05  6.6661200000000000e+05  6.6661200000000000e+05  1.8707465847324216e+05  2.3543988117141859e+05  6.6661200000000000e+05  3.8744003102619841e+05  2.9006090083913610e+05  3.6622268395886058e+05  3.2165796083555749e+05  3.2990479684415105e+05  2.8231384412949963e+05  4.6489701449574984e+05  3.0548638470146654e+05  3.6217631345427502e+05  3.1295705180357734e+05  3.2439737502904760e+05  3.8525316982259788e+05  2.8319829936241271e+05  6.6661200000000000e+05  6.6661200000000000e+05  4.0393815708224440e+05  6.6661200000000000e+05  6.6661200000000000e+05  2.7335153180704993e+05  2.8731183519499522e+05  4.5479833166580898e+05  6.6661200000000000e+05  6.6661200000000000e+05  2.4208541778168565e+05  6.6661200000000000e+05  3.2254685047529615e+05  3.5668547874129243e+05  1.8951926777394104e+05  2.6532557042435836e+05  2.3825975425916235e+05  3.2103488150598714e+05  3.1955790257725486e+05  2.5550224357652897e+05  3.2776628724974557e+05  2.8072654487185803e+05  1.3630409664158869e+05  3.3147787287004164e+05  3.9110360849677032e+05  3.1429772077218478e+05  4.3286892620318523e+05  3.2195724795527250e+05  3.7786627972147678e+05  3.1513556414337637e+05  3.3014576646464248e+05  4.5163618758465070e+05  3.9530963789317163e+05  3.2229018125437247e+05  6.6661200000000000e+05  4.0878678527344042e+05  1.3301014729734405e+05  1.2303147828899491e+05  1.3484610559545641e+05  2.8954433960815682e+05  2.7153665101745859e+05  3.0772168446439347e+05  1.8429059527829217e+05  1.3579549204496053e+05  2.3530577817731674e+05  3.0178530623440794e+05  2.1132579136115481e+05  1.3728245503710679e+05  1.8090343437059957e+05  1.7679055673725341e+05  3.3645306319437828e+05  4.8636025424086297e+05  3.9321452782194869e+05  1.8339295423035685e+05  2.0543248897267843e+05  6.6661200000000000e+05  4.4745306713131920e+05  5.0156960853641998e+05  6.6661200000000000e+05  4.7457738205414143e+05  6.6661200000000000e+05  6.6661200000000000e+05  6.6661200000000000e+05  6.6661200000000000e+05  3.9647011471466708e+05  6.6661200000000000e+05  6.6661200000000000e+05  6.6661200000000000e+05  6.6661200000000000e+05  4.2478257666144113e+05  6.6661200000000000e+05  6.6661200000000000e+05  6.6661200000000000e+05  6.6661200000000000e+05  4.5884900229385897e+05  3.5396595950386056e+05  6.6661200000000000e+05  6.6661200000000000e+05  4.6174586433779396e+05  2.5946119330542520e+05  4.8398162743233680e+05  6.6661200000000000e+05  6.6661200000000000e+05  6.6661200000000000e+05  4.2678746858747787e+05  6.6661200000000000e+05  6.6661200000000000e+05  6.6661200000000000e+05  4.5566587210824562e+05  4.1044652445715171e+05  3.7219586136079294e+05  6.6661200000000000e+05  3.2161637917075283e+05  3.8523059288299055e+05  3.5768122404002404e+05  4.5043941787332809e+05  2.6705426045239251e+05  3.3335544582660758e+05  4.1642551390674099e+05  3.5507845231203595e+05  4.8336070887073601e+05  6.6661200000000000e+05  4.5095819632621127e+05  6.6661200000000000e+05  2.0448518414630456e+05  2.2615354002646229e+05  1.3298230952465351e+05  6.6661200000000000e+05  4.8389287152599561e+05  4.5134835246805847e+05  1.4074080042895494e+05  4.5314263573105499e+05  4.9533048438598891e+05  6.6661200000000000e+05  4.7777276265511138e+05  6.6661200000000000e+05  6.6661200000000000e+05  6.6661200000000000e+05  4.9843390447579243e+05  6.6661200000000000e+05  6.6661200000000000e+05  6.6661200000000000e+05  6.6661200000000000e+05  6.6661200000000000e+05  6.6661200000000000e+05  4.5847614629402978e+05  6.6661200000000000e+05  4.5144622522861790e+05  3.3743239379181783e+05  2.8880168379741965e+05  3.1156810204196797e+05  3.8828135196957138e+05  6.6661200000000000e+05  6.6661200000000000e+05  6.6661200000000000e+05  6.6661200000000000e+05  2.7734711005493352e+05  4.9886778944945603e+05  4.9831784249545215e+05  4.2577322707960702e+05  1.6298508055453151e+05  1.5393152508958185e+05  1.3443405538050723e+05  1.3577286723348676e+05  6.6661200000000000e+05  1.7312785265419239e+05  6.6661200000000000e+05  6.6661200000000000e+05  4.3928921983170131e+05  6.6661200000000000e+05  6.6661200000000000e+05  4.7414466857599537e+05  4.6863876489736268e+05  6.6661200000000000e+05  6.6661200000000000e+05  6.6661200000000000e+05  6.6661200000000000e+05  4.4551974957028765e+05  4.2580400180490303e+05  4.5878513229742367e+05  6.6661200000000000e+05  1.4789877803882357e+05  1.8159052407115366e+05  1.166307073351229