<?xml version="1.0"?>
<VTKFile type="UnstructuredGrid"  version="0.1"  >
<UnstructuredGrid>
<Piece  NumberOfPoints="1251" NumberOfCells="6288">
<Points>
<DataArray  type="Float64"  NumberOfComponents="3"  format="ascii">-0.008618781378513006 0.02022843179563562 -0.009591210752432085  -0.003424855300411114 0.0250233978039808 -0.00640787499758661  0.001135971696977304 0.01615774735912978 -0.01383239255967271  -0.0001399781061891068 0.02373011912694776 -0.01741139074189327  0.01684678394736044 -0.04648793173769725 0.00557751774624834  0.01769724952561222 -0.03602501039561339 0.002160610776935646  0.02343425574945916 -0.04353555193606887 0.006248240728089043  0.02099273302659652 -0.04518820968427766 -0.001186889865617706  -0.00851363170672708 -0.005054511823791455 -0.03758067002167309  -0.01778513230421977 -0.005725321281340808 -0.03771001825607551  -0.01320833803349334 -0.01286526182843488 -0.0370918805309573  -0.01495949392052151 -0.005398209712743999 -0.02804744519649312  -0.04791158220620767 -0.01066282734675562 0.008325064480888435  -0.03975065949986395 -0.0137754752570045 0.00259740381128344  -0.04073471124364587 -0.004395778117665191 0.0025822968277098  -0.0414613022136742 -0.005727782421543524 0.009850025512909687  0.01200969294673503 0.04800035804885175 0.00634692144335954  0.01294172359526669 0.04096062842790785 -0.001028174444541978  0.01105273807732704 0.04028007495283809 0.01002509255214365  0.006393907141083895 0.03773099591165409 0.003254201417331906  0.008083448585572958 -0.0311614028985188 -0.01133850744293309  0.004726688341750271 -0.0344108691673382 -0.002485882382095813  0.01085843375773206 -0.03552749298395232 -0.006073930435216623  0.004787127489555868 -0.02721966463668488 -0.002532400480414413  -0.03732982560287364 -0.01829466005117382 -0.02703659327350994  -0.02868926829608055 -0.01981737924995695 -0.02127485307124928  -0.03594792927254021 -0.01122520626802403 -0.02051746965557274  -0.03424097085169744 -0.01910733657235648 -0.01514198190694586  -0.01705319257816986 0.03472536438389627 -0.01250804974041752  -0.008925078026411024 0.03148284790065543 -0.003719554089048666  -0.01627279878808358 0.03317634802196501 -0.002911217110432341  -0.01099577596465517 0.02717213362192622 -0.01367598454674442  -0.0150904010344029 -0.006576472096863054 -0.01161997454023994  -0.01837576417454664 -0.01384678196899844 -0.01298258947025999  -0.008784700368300842 -0.005920878690867531 -0.01665148250928195  -0.008346893353632544 -0.01612235770857033 -0.01365476825633213  0.01533294073730674 -0.02538955422423379 -0.03110324311640119  0.01649717243071405 -0.03110752575761318 -0.02693779423520117  0.01418747649160241 -0.02991656874162288 -0.02025583910745028  0.01062099174929446 -0.02086502903693747 -0.02541500365089326  -0.03920790344616346 0.01417853974448836 0.01472372189253237  -0.0369244721007603 0.01595484220567449 0.008109694989502576  -0.03313328523276637 0.01003341005748076 0.0100202534918993  -0.04017494513941989 0.008779605412863186 0.01003000274210483  0.04243890022541725 0.0008007975469236329 0.001949396706907696  0.02985754093212681 0.003283300011535762 0.001968164969271287  0.03453648789988135 -0.004926272890278281 0.00306654249645101  0.03811600520910281 0.004730380385149268 0.00799095840943446  -0.02318694757010939 0.001910306705796966 0.03147973287969932  -0.01378383327180084 0.007624085175930303 0.0348308388159122  -0.02211370643836146 0.01122098619371256 0.03233225678578037  -0.02131891824422582 0.005928062665705119 0.03719313761362313  0.00537896491901578 0.03072608155663384 0.02888545533424208  0.003925967534715974 0.02189345192585023 0.02273300618579492  0.01197089205640707 0.02554209852139497 0.02147609671915338  0.01302316827969244 0.0274148602683534 0.02948034325790209  -0.02470106777315862 -0.02761201362286518 0.0224328411400398  -0.0300554108633125 -0.02731316184206288 0.01399606195385923  -0.03001946100533329 -0.02330948527464385 0.0200194379803559  -0.02309421256822275 -0.02608335766458567 0.01552611985696716  -0.009788010024817004 0.00915111311535243 0.00834134739101232  -0.00386744098665287 -0.0001348921824855989 0.009634452822775256  -0.007442353402279273 0.006119277673204117 -0.0008497963157928024  0.0009871846307915114 0.01035151415795078 0.004750396716483953  0.007351158865428149 0.01221677712942613 0.04779650564451203  0.006063590652498963 0.003007921279956304 0.0409565188661593  0.01335404924426226 0.009994702170440045 0.03732641198024324  0.01190893190249124 0.006408931575668415 0.04801616595951748  0.0003041213186637859 0.01374036483249132 0.02288352124016775  -0.006257282002865369 0.01730177552042608 0.02931355235942417  -0.004942641056190984 0.01028664889327514 0.01867758411251457  -0.007563530272625398 0.00982994978991281 0.03080558959368318  0.009361796128463747 0.006666571077434871 -0.01619614946785495  0.01440237395044415 0.01273170861459123 -0.01175270768781354  0.01924739814508175 0.004277170893462181 -0.0154550489259383  0.01768646773116949 0.01487644775683682 -0.01929171636593022  -0.03396796700783897 0.01772158374613694 0.0182028836222438  -0.02772586270842707 0.01383622350820789 0.01275072723796475  -0.02877389800755319 0.01743999082725075 0.02501638713080756  -0.02816159744682087 0.008965727341618811 0.02387909921109715  0.01825912563081436 -0.00834918249166572 0.03550766739825639  0.01748433659921433 -0.01581782276231609 0.03576428854875673  0.02722161181223359 -0.01142290531868125 0.03994432523142034  0.02287046183118282 -0.01698060449499653 0.04087157095512996  0.01493132792253329 -0.02477886861742494 -0.01526599374672008  0.005044104951663761 -0.0234773667632963 -0.01847201504500999  0.01622895702883654 -0.01862031012526116 -0.01876401465039607  -0.002841461117944773 -0.01030106440248109 0.01157600452452596  0.0003214907683317305 -0.01725392103069004 0.015972679582782  -0.006005560739728836 -0.02137875450851268 0.0137726087555553  -0.0009302904835543175 -0.01766986645056465 0.008194614675255306  -0.03756627568876965 -0.03196224524379945 0.007158021417305978  -0.03741775081146026 -0.02730494926307481 0.01775119699424654  -0.03290607225789535 -0.02262298157932417 0.009285678113680702  -0.04355003194559671 -0.02224515002252927 0.009457812684953552  -0.004127519249617828 -0.02347667272706987 0.03484809712761681  0.004451501496412666 -0.02105317310216362 0.03601795066257554  0.0006405555980365549 -0.01372450486354315 0.03974318654972139  -0.001389762015650404 -0.02398217389927784 0.04355745342113077  0.00592238802581521 0.02778056183964386 -0.02501223444695761  0.008848643669401071 0.02522085356776883 -0.01740988047391799  0.00741089924699831 0.01664798379435906 -0.01950363956171258  0.01417353171582458 0.03343752448046614 0.01420691350827363  0.01589790845027868 0.03321842983209333 0.02163650372832863  0.02115444300377021 0.02780816770602559 0.02048837627878497  -0.0128709561084262 0.01587156653657292 -0.02312442246844917  -0.007017154706007036 0.01637570015218535 -0.0161252328322482  -0.001628902034183096 0.01825445361349828 -0.02582788831103913  -0.01175151479645122 0.02362671224328129 -0.02095376210897935  -0.02835845792622144 -0.009798988085804664 -0.02130123194904454  -0.02577911086928218 -0.01653948406222141 -0.01454519427520315  -0.0359067925699391 -0.01133100794666196 -0.0127563118341487  0.01665708299481935 0.004725116143189942 -0.002672489958807388  0.02031639539210584 0.001906371544734939 0.005314892199335876  0.02394150223289601 0.008856819838916796 0.004079917139646547  0.01190436288979563 0.01106213579835014 0.0005471777348517535  0.012447400332426 0.03287688101163592 -0.01625011380807415  0.007153672911275694 0.03920990319277487 -0.01553042938717726  0.01758283037324894 0.04459142351965743 -0.01327499640687778  0.01740941298121458 0.04050539297733528 -0.02323295186582824  -0.002881120526361858 0.01098218992976385 -0.01069237584682241  0.0008408244318291779 0.01299865616990299 -0.0303557686560668  -0.0006442053179854237 0.009464556275671762 -0.02347100120345089  0.006698709811288842 0.01086640993592143 -0.02643615631774859  0.01700616217735426 0.001250428546879385 0.01244042575107632  0.02728345655412298 0.004839393756162866 0.01133017096871478  0.01950124385817488 0.008585540129602238 0.01565795239863345  -0.01110185267954801 -0.01203867268829073 0.027340700418237  -0.00446100388448657 -0.009450148396861563 0.02527458442611224  -0.01208425974532729 -0.004243552819338515 0.03194937996850142  -0.003364372123022424 -0.006200336742193124 0.03156364386688951  -0.002392661315900549 0.00387802199553925 -0.03367001732338103  0.004582265922959423 0.006233982772802711 -0.03200650042606142  -0.01051021173807845 -0.02946454945007823 0.009887379787219005  -0.006411065495145894 -0.02392211023849102 0.004458463305366693  -0.008970060080337901 -0.02934130472431357 -0.002158992905226459  -0.01489930441615278 -0.02387496685125028 0.002913727324905796  -0.03421206092964622 0.0132499671029246 0.03351182684941664  -0.02578882602748911 0.01620117399503414 0.03942158831514091  -0.0289553017113697 0.007195775912261696 0.03145853514351685  -0.01977774000311122 -0.003854664073127572 0.04551970923204433  -0.01413486008215727 0.007024766039906029 0.04737753500369483  -0.01725801401105892 -1.587122470093818e-05 0.03786663363060536  -0.02211629342323457 0.007372097807744857 0.04423258684646914  -0.03790102316919654 0.01806534598494548 0.02646113987018307  -0.04320812567380001 0.01312073175754703 0.02063928825671704  -0.04192936976263206 0.02160274284658904 0.01589234911377999  0.01340630611923206 -0.0146082111730805 0.0008417761426231839  0.012720784410069 -0.008725701464314832 -0.005463947127139213  0.01464715150919833 -0.008196640189633619 0.006261407429578789  0.02158916891391332 -0.008517350234641336 0.001390485292673719  -0.02072673428198708 0.02106304554422313 -0.02141078513974546  -0.0140763456021198 0.02246239084547277 -0.02933875012496729  -0.0171056585270888 0.02898164220849328 -0.02861702965553878  -0.002621392369972028 0.0498357525102528 0.0003441585345882734  -0.00
[...]
<PointData  Scalars="f_203"> 
<DataArray  type="Float64"  Name="f_203"  format="ascii">1.8936117619412538e+05  2.0556671127401531e+05  1.7122583379687197e+05  2.3784571334032979e+05  6.6661200000000000e+05  4.0121034542568302e+05  6.6661200000000000e+05  6.6661200000000000e+05  3.7404406894971203e+05  4.4350697471673263e+05  4.2910346898181859e+05  2.7073930167969415e+05  6.6661200000000000e+05  4.4319898133232229e+05  4.1785347567945952e+05  4.6141683633478929e+05  6.6661200000000000e+05  4.6205347361322993e+05  4.6327160535878385e+05  3.6416855088991724e+05  2.9576765103622718e+05  3.0525804272793652e+05  3.5173817824664572e+05  2.2080576087909113e+05  6.6661200000000000e+05  4.1697545692907408e+05  4.6138937892419728e+05  4.4316233469436248e+05  4.1030977750840969e+05  2.7875528656640626e+05  3.4104121133584011e+05  2.7169461852226913e+05  1.6466336966184049e+05  2.0907984963629313e+05  1.6250804074647694e+05  1.8056296742721790e+05  4.6798594773024268e+05  5.0244469383115863e+05  3.7494920799359557e+05  3.0312849028494727e+05  4.9815907119284815e+05  4.1999030482325936e+05  3.2502225407488429e+05  4.4876169923889282e+05  4.4989804428995453e+05  2.4473189712992997e+05  3.0779520147723757e+05  3.8069423285320873e+05  3.7925315177246847e+05  3.6167108178910153e+05  4.1243503389502806e+05  4.6956297942146438e+05  4.5349913412859105e+05  2.6501308874170529e+05  3.1522308009301173e+05  4.4864890365790343e+05  4.7495310349536350e+05  4.6543540635175753e+05  4.6764437596951029e+05  3.6195218263360142e+05  1.4355751632375192e+05  1.2599179255032816e+05  1.2432864630127477e+05  1.2872251141855920e+05  6.6661200000000000e+05  4.2776183515667828e+05  4.1446533973679016e+05  6.6661200000000000e+05  2.1126934372278705e+05  3.0245741760934639e+05  1.7518497590424298e+05  2.8234508988574921e+05  1.6295214439526066e+05  1.7925095400639670e+05  1.9753999080211660e+05  2.4520931804229587e+05  4.5321238475137408e+05  2.8775145909238368e+05  4.4198716743088450e+05  3.5870235133871133e+05  4.1377893964813906e+05  4.6110812342967943e+05  6.6661200000000000e+05  6.6661200000000000e+05  2.7714379069431993e+05  2.4769850559229153e+05  2.5641345724207617e+05  1.4335291862946129e+05  1.8617725726183562e+05  2.0635207453530951e+05  1.6084998944202627e+05  6.6661200000000000e+05  6.6661200000000000e+05  4.1892196744544932e+05  6.6661200000000000e+05  4.4673671354329080e+05  4.4078412970818451e+05  4.4023426779932197e+05  6.6661200000000000e+05  3.5493190318460081e+05  2.6611530222488457e+05  2.1117488603495469e+05  3.7714021319695649e+05  4.5767266520757246e+05  4.0848583281423256e+05  2.5397728734114129e+05  1.8990651397521360e+05  2.6296576216689200e+05  2.8958347366772866e+05  3.3731718315704440e+05  2.9336989191802312e+05  3.9251700257443934e+05  1.5084382308768001e+05  1.6991534891382552e+05  2.0378532694236291e+05  1.4545869936449375e+05  3.7142147441428149e+05  4.5778174359627807e+05  6.6661200000000000e+05  6.6661200000000000e+05  1.4262383735072319e+05  2.8039704964757827e+05  1.9952184129789012e+05  2.3681793306990122e+05  1.7011118060236238e+05  2.4319316544577829e+05  2.0912254385531796e+05  2.6562109919429029e+05  2.1706803258661961e+05  2.9933485865854891e+05  2.7102567548757698e+05  2.9297772050157940e+05  2.7885297001708928e+05  2.7752125595054688e+05  1.9816168692942776e+05  2.5210345883577401e+05  2.2597592541286699e+05  6.6661200000000000e+05  6.6661200000000000e+05  4.7356694692825864e+05  6.6661200000000000e+05  6.6661200000000000e+05  4.3115303996826673e+05  6.6661200000000000e+05  6.6661200000000000e+05  6.6661200000000000e+05  6.6661200000000000e+05  1.6287924287649163e+05  1.4597867233682013e+05  1.5295972845069421e+05  1.8399148455251011e+05  3.3349492759563040e+05  3.8854691049797490e+05  4.9641293883441447e+05  6.6661200000000000e+05  4.1172056371553714e+05  6.6661200000000000e+05  6.6661200000000000e+05  3.0098240487696207e+05  2.5848115279607038e+05  3.9250998702946957e+05  4.4631273703736445e+05  2.4971721502455906e+05  2.4131902189559233e+05  2.3270071598776613e+05  2.0696767618763738e+05  1.5649817796677718e+05  1.5158963246344210e+05  1.6989492438646097e+05  4.4143106729670300e+05  3.9974168361675844e+05  3.3856033784174564e+05  4.5847108380676934e+05  2.2256679058122030e+05  2.5909724802637770e+05  4.3546266601193778e+05  6.6661200000000000e+05  6.6661200000000000e+05  6.6661200000000000e+05  4.0305578436229727e+05  2.8896676164601673e+05  3.6001140182045987e+05  2.5837387851319919e+05  1.5940813080282314e+05  1.9846807369821073e+05  4.5740314455398504e+05  6.6661200000000000e+05  6.6661200000000000e+05  6.6661200000000000e+05  6.6661200000000000e+05  4.1078100381312071e+05  6.6661200000000000e+05  4.6491001310853765e+05  6.6661200000000000e+05  6.6661200000000000e+05  6.6661200000000000e+05  6.6661200000000000e+05  4.5964926147978095e+05  1.6287151938828945e+05  6.6661200000000000e+05  6.6661200000000000e+05  6.6661200000000000e+05  4.3981868817030377e+05  1.8802332327558650e+05  1.5086227166547489e+05  1.9290672944049622e+05  2.8534890447972558e+05  2.7867877898009086e+05  2.3575835894107638e+05  1.9877613803208355e+05  2.5682113023526425e+05  6.6661200000000000e+05  4.1524856827430206e+05  6.6661200000000000e+05  3.7092040517854196e+05  6.6661200000000000e+05  4.5852061594094086e+05  6.6661200000000000e+05  6.6661200000000000e+05  4.7689564949079353e+05  4.6412737077559251e+05  6.6661200000000000e+05  6.6661200000000000e+05  4.7691214131743892e+05  6.6661200000000000e+05  6.6661200000000000e+05  4.4768111136601854e+05  1.5856533145716460e+05  1.2900940017338593e+05  1.3766806821421545e+05  1.2215898599186576e+05  4.1186271024025627e+05  4.4906266342141159e+05  6.6661200000000000e+05  6.6661200000000000e+05  6.6661200000000000e+05  6.6661200000000000e+05  6.6661200000000000e+05  6.6661200000000000e+05  4.1279816613475583e+05  4.0871600606629747e+05  2.7424230179070350e+05  2.7014473208207800e+05  2.9375785374184587e+05  2.1079010895890868e+05  6.6661200000000000e+05  4.1567746034624468e+05  3.7103247141760093e+05  4.9335450735989085e+05  2.3801203945737510e+05  1.6053491720429994e+05  2.3493774825724299e+05  1.9893872893145715e+05  6.6661200000000000e+05  2.4559487722256000e+05  3.3311061048825807e+05  3.8367195400954876e+05  4.6169066088392958e+05  6.6661200000000000e+05  4.4664904720453225e+05  4.6167110750758066e+05  6.6661200000000000e+05  4.4203185639246152e+05  4.5419139824484900e+05  6.6661200000000000e+05  6.6661200000000000e+05  3.4914698050153174e+05  4.1828322096976067e+05  4.7035535622004006e+05  6.6661200000000000e+05  6.6661200000000000e+05  6.6661200000000000e+05  1.9333674924079687e+05  6.6661200000000000e+05  4.3751644717599766e+05  6.6661200000000000e+05  6.6661200000000000e+05  6.6661200000000000e+05  4.7961139930202585e+05  3.9803624153771834e+05  2.7542091176262870e+05  2.3203555289777921e+05  2.4092026563829966e+05  3.7851874061632802e+05  4.6971897000414302e+05  4.6755909956809314e+05  6.6661200000000000e+05  6.6661200000000000e+05  4.5050722819408536e+05  6.6661200000000000e+05  2.9772920358726475e+05  3.1673446226131992e+05  6.6661200000000000e+05  6.6661200000000000e+05  4.5041546053210367e+05  6.6661200000000000e+05  2.9428566658982442e+05  4.0473433282037196e+05  2.6763895710562577e+05  6.6661200000000000e+05  6.6661200000000000e+05  6.6661200000000000e+05  4.4844322690697783e+05  2.6673031563941529e+05  1.9100449158838013e+05  1.5974312628786350e+05  1.6002028620522507e+05  1.3641086545682780e+05  2.1611317777782050e+05  2.6937325654884888e+05  2.6894495110216772e+05  6.6661200000000000e+05  4.6777118358361628e+05  4.4982413601132930e+05  2.3060881174020169e+05  2.9244535214623390e+05  1.9748623726399895e+05  4.0806580108675192e+05  3.8219529723748408e+05  4.1410535672469705e+05  4.6296501264863275e+05  2.6868347990262951e+05  6.6661200000000000e+05  6.6661200000000000e+05  6.6661200000000000e+05  2.7550650320118718e+05  2.2652965253887660e+05  2.1754839619858965e+05  2.9457688949980366e+05  1.6206816980179338e+05  1.8721655262674784e+05  2.0409923337263620e+05  2.5309837862302619e+05  3.3839907630452025e+05  2.7848038192603027e+05  3.2172161032028688e+05  4.1860228424481832e+05  4.3353842433909886e+05  3.7560374995963403e+05  6.6661200000000000e+05  1.7024050938093493e+05  3.3154575017338526e+05  4.1522358849058195e+05  6.6661200000000000e+05  6.6661200000000000e+05  4.1461937966753665e+05  4.9440773169252032e+05  6.6661200000000000e+05  2.7925134510663786e+05  3.0098226327797619e+05  2.3967781737078691e+05  2.5268728442343057e+05  2.3656146934213297e+05  2.1820564925329183e+05  1.8460507889361877e+05  2.4351825437409361e+05  6.6661200000000000e+05  6.6661200000000000e+05  2.8404612520100840e+05  3.3324597784711595e+05  3.8350332089962531e+05  2.5084328585649983e+05  6.6661200000000000e+05  4.8021763240054861e+05  6.6661200000000000e+05  6.6661200000000000e+05  2.8563888882345898e+05  2.1009932053422710e+05  6.6661200000000000e+05  6.6661200000000000e+05  6.6661200000000000e+05  6.6661200000000000e+05  6.6661200000000000e+05  6.6661200000000000e+05  4.2736529766866373e+05  6.6661200000000000e+05  6.6661200000000000e+05  6.6661200000000000e+05  3.9183478693997586e+05  4.5471336451920372e+05  6.6661200000000000e+05  6.6661200000000000e+05  6.6661200000000000e+05  4.6616090977079479e+05  6.6661200000000000e+05  6.6661200000000000e+05  4.2569822124435857e+05  6.6661200000000000e+05  6.6661200000000000e+05  4.8465665748092590e+05  3.8175464287344157e+05  3.7984304936242558e+05  4.1232193600002286e+05  3.1882333473587199e+05  2.8222579776974511e+05  1.4800406580945943e+05  1.4127916028677838e+05  1.4806442088370721e+05  1.2200415974808397e+05  1.4644017593926098e+05  1.5520726997838533e+05  1.7970470719749178e+05  1.8346807504816935e+05  6.6661200000000000e+05  6.6661200000000000e+05  2.8167234192844934e+05  4.1503652037035848e+05  2.6876379180819297e+05  4.3788257044664421e+05  3.3599689133639686e+05  2.8123533218439459e+05  6.6661200000000000e+05  2.0666014923682294e+05  4.1944231556376535e+05  4.2862712409172551e+05  2.9004690134390810e+05  3.1146812189484166e+05  2.8372495567478728e+05  2.1691973096697379e+05  3.1298047876207042e+05  2.8860976217332826e+05  1.5134276487652550e+05  2.0050842312908627e+05  3.3801147267518425e+05  1.9919406020456034e+05  2.4813338255672701e+05  2.2450760208815074e+05  2.7115410841946030e+05  3.5003305696368602e+05  6.6661200000000000e+05  4.3132323032208218e+05  6.6661200000000000e+05  6.6661200000000000e+05  3.5811831677012349e+05  3.1780090330590378e+05  2.3323969540458886e+05  1.8944973209831174e+05  6.6661200000000000e+05  6.6661200000000000e+05  3.4754474021891603e+05  4.2471935982059373e+05  4.8651889046101033e+05  3.2731791073286295e+05  4.9021737283658615e+05  4.2657217629078333e+05  2.7353966746444098e+05  4.4411517278652865e+05  3.3312017031363334e+05  4.7095418855879741e+05  1.6555345269442571e+05  2.0297748825411205e+05  4.6468754820276075e+05  4.6033034700433811e+05  3.1612705697143247e+05  6.6661200000000000e+05  6.6661200000000000e+05  6.6661200000000000e+05  4.1974578140269074e+05  3.0531284018348658e+05  2.3732065577082467e+05  2.9297576023249154e+05  2.1351060320417213e+05  6.6661200000000000e+05  6.6661200000000000e+05  4.7585788983216189e+05  1.5517887625327104e+05  1.9018268792931529e+05  6.6661200000000000e+05  6.6661200000000000e+05  4.5806791422329732e+05  6.6661200000000000e+05  1.6012661461751876e+05  4.7706264338320476e+05  6.6661200000000000e+05  6.6661200000000000e+05  4.7238177173172298e+05  6.6661200000000000e+05  4.0595767815829295e+05  4.0960871056073782e+05  2.8925964628613321e+05  4.1223252543055505e+05  2.7728518901306478e+05  1.9494673938841789e+05  2.0154363486700255e+05  2.9769412313441531e+05  4.2842272767592705e+05  3.3393208262567112e+05  4.6885908779011416e+05  3.0876097354912688e+05  2.8499053815076023e+05  2.3795919759765759e+05  3.7573630826728698e+05  6.6661200000000000e+05  6.6661200000000000e+05  3.5478902017372096e+05  4.6556918222476688e+05  3.8706525099973567e+05  4.4950402591893432e+05  4.9208189826179342e+05  6.6661200000000000e+05  6.6661200000000000e+05  6.6661200000000000e+05  6.6661200000000000e+05  6.6661200000000000e+05  3.0744515117759316e+05  3.7375107209328230e+05  3.8080274699188257e+05  6.6661200000000000e+05  6.6661200000000000e+05  6.6661200000000000e+05  4.3612305844654498e+05  6.6661200000000000e+05  6.6661200000000000e+05  6.6661200000000000e+05  4.9401345182086335e+05  6.6661200000000000e+05  6.6661200000000000e+05  1.2859746001441449e+05  1.2083290763217995e+05  6.6661200000000000e+05  3.7312087667892128e+05  4.0940199285249092e+05  4.9403713227054506e+05  6.6661200000000000e+05  2.7487476846081764e+05  3.8329107825038058e+05  3.4234348302030266e+05  4.1000381222106807e+05  4.8428924171812594e+05  1.9055287733819577e+05  2.5784437712761227e+05  1.6431460417116055e+05  1.4009120650993462e+05  1.6659942325701489e+05  1.4166922160692798e+05  3.0903120855124673e+05  6.6661200000000000e+05  4.6223831078168523e+05  6.6661200000000000e+05  4.5245210403662617e+05  2.6107205519839568e+05  1.6806954356628889e+05  6.6661200000000000e+05  6.6661200000000000e+05  6.6661200000000000e+05  4.5635504607984499e+05  3.0815277049700287e+05  4.6082495987498516e+05  2.9788161009522562e+05  3.5909660186614178e+05  6.6661200000000000e+05  4.2403249062284594e+05  4.5256971929516830e+05  6.6661200000000000e+05  3.7239731834617694e+05  2.5515417432514328e+05  3.9852163918449450e+05  3.0634980571511691e+05  2.5138318814401713e+05  4.8827848906192358e+05  4.6261203975629387e+05  6.6661200000000000e+05  3.8918705816936656e+05  3.8348431615575019e+05  4.1585861191748577e+05  2.7605400756574376e+05  2.6661351386984292e+05  4.6546421830905223e+05  4.2100082346053049e+05  3.5170002870932908e+05  4.5585060785575438e+05  3.9460118748167588e+05  6.6661200000000000e+05  2.0514315512833168e+05  2.7827124785943783e+05  6.6661200000000000e+05  6.6661200000000000e+05  6.6661200000000000e+05  3.8242406675316812e+05  1.4224155757531422e+05  1.6095432023860075e+05  2.0135740267136329e+05  1.7918546289025262e+05  4.6106846132614941e+05  6.6661200000000000e+05  6.6661200000000000e+05  6.6661200000000000e+05  2.6618418927740835e+05  2.7875840244072501e+05  1.9508493918102086e+05  4.5235279875547893e+05  1.2636354058121608e+05  1.2323060589775175e+05  2.7834660438890615e+05  4.1003285565790092e+05  6.6661200000000000e+05  6.6661200000000000e+05  6.6661200000000000e+05  1.4719814629193550e+05  4.0034166477236646e+05  4.1544423043794720e+05  3.3874937994319759e+05  2.2835257951449446e+05  2.7293597169284616e+05  3.3121055104337184e+05  6.6661200000000000e+05  4.5071784803066141e+05  4.4272586687721370e+05  3.6168009913556615e+05  6.6661200000000000e+05  4.0863741553001496e+05  6.6661200000000000e+05  6.6661200000000000e+05  4.1187016678499291e+05  2.9403209336029639e+05  3.9678365046253195e+05  3.7136399345057312e+05  3.0116554781519435e+05  4.5282016566166288e+05  6.6661200000000000e+05  4.5981064284300007e+05  4.2752085761604796e+05  6.6661200000000000e+05  5.0348432349618024e+05  3.0675207667218457e+05  4.0981200299402996e+05  4.6343658073413454e+05  6.6661200000000000e+05  2.3452908223271335e+05  2.2693051527640631e+05  3.9582669483806111e+05  4.9246589830351959e+05  2.9853486069345305e+05  2.9915429421041615e+05  3.7053556375625823e+05  6.6661200000000000e+05  6.6661200000000000e+05  6.6661200000000000e+05  6.6661200000000000e+05  4.4693963984576485e+05  1.6824066403588207e+05  1.9704331551709809e+05  6.6661200000000000e+05  6.6661200000000000e+05  6.6661200000000000e+05  6.6661200000000000e+05  6.6661200000000000e+05  4.5340252257106028e+05  1.2734976944072176e+05  1.3924529126483592e+05  4.0181064795455639e+05  6.6661200000000000e+05  4.6132572006258712e+05  2.0230207670599609e+05  1.6388313389853603e+05  2.2755196024812173e+05  6.6661200000000000e+05  4.7396540041438909e+05  4.7548709210148337e+05  3.5609202233948867e+05  4.3190377689715195e+05  6.6661200000000000e+05  3.9763532388214261e+05  6.6661200000000000e+05  2.1170539688545198e+05  2.8254539414268057e+05  6.6661200000000000e+05  1.9994205762265594e+05  4.1380626905686577e+05  4.8175605627859756e+05  4.4582785040654073e+05  2.0940883673256892e+05  6.6661200000000000e+05  4.4884387863212731e+05  6.6661200000000000e+05  4.3003378805505182e+05  6.6661200000000000e+05  4.6616623458739260e+05  6.6661200000000000e+05  6.6661200000000000e+05  4.5656829804865428e+05  6.6661200000000000e+05  6.6661200000000000e+05  4.2316918357329175e+05  4.7457847961855354e+05  4.4210325978582329e+05  6.6661200000000000e+05  4.1374210771861742e+05  3.9040135162895621e+05  6.6661200000000000e+05  6.6661200000000000e+05  6.6661200000000000e+05  6.6661200000000000e+05  6.6661200000000000e+05  3.3490739845986053e+05  6.6661200000000000e+05  6.6661200000000000e+05  3.8327478907364974e+05  6.6661200000000000e+05  6.6661200000000000e+05  6.6661200000000000e+05  1.4231089172381817e+05  1.8473499799776627e+05  4.7045262129223027e+05  2.7097688849107880e+05  6.6661200000000000e+05  3.0263409599857184e+05  2.7527247694219556e+05  3.7301603366850846e+05  3.6096593621787505e+05  3.6639413767922053e+05  2.6802008366503933e+05  2.4593192473988017e+05  6.6661200000000000e+05  4.4351502557330369e+05  1.9810762324057647e+05  6.6661200000000000e+05  4.3846888414535607e+05  6.6661200000000000e+05  4.2879307528569084e+05  2.6987031838992512e+05  2.6002480247065210e+05  4.4521901741787430e+05  4.6603495422256453e+05  6.6661200000000000e+05  4.4601371527258819e+05  6.6661200000000000e+05  4.3132162201105716e+05  6.6661200000000000e+05  6.6661200000000000e+05  2.4733572165229090e+05  6.6661200000000000e+05  4.6780516689785430e+05  3.2995967417255190e+05  6.6661200000000000e+05  2.7995344962894853e+05  3.9153677929146087e+05  2.1637753287401434e+05  6.6661200000000000e+05  2.9041370275748987e+05  3.0649092420684482e+05  4.6213489015739562e+05  4.5567743234391935e+05  3.6053226390119927e+05  1.7555924155983294e+05  2.2733249354083359e+05  1.7461296186991897e+05  6.6661200000000000e+05  6.6661200000000000e+05  2.0247185083884938e+05  1.3103801659226663e+05  1.2234756780245565e+05  3.1677432110247220e+05  4.0375559897642903e+05  2.6018013939504776e+05  4.4630372392439668e+05  4.3110769997504307e+05  6.6661200000000000e+05  6.6661200000000000e+05  6.6661200000000000e+05  6.6661200000000000e+05  4.5969215140867385e+05  1.7823699125802593e+05  2.0234758617695153e+05  2.4030569401122158e+05  2.4994672819810620e+05  2.4008815812427181e+05  2.8540583186499099e+05  3.8052565497863031e+05  1.6100922665349999e+05  6.6661200000000000e+05  4.4277870849965082e+05  4.5423909232984477e+05  6.6661200000000000e+05  4.4514312499907013e+05  6.6661200000000000e+05  4.5482982055787661e+05  4.1706597391539632e+05  6.6661200000000000e+05  6.6661200000000000e+05  6.6661200000000000e+05  3.9180045931562240e+05  6.6661200000000000e+05  3.4062016393912549e+05  4.5586500466179306e+05  2.6779638653669471e+05  3.3260501279341406e+05  2.5840869602524643e+05  1.5716873294777074e+05  3.4872062670290552e+05  4.3630022722397267e+05  3.1082135397373047e+05  6.6661200000000000e+05  3.9350783118699241e+05  6.6661200000000000e+05  4.1484243840243423e+05  3.6675997618787608e+05  2.5690229522073342e+05  2.5559822595056592e+05  2.3966314705968444e+05  3.3775121472409315e+05  4.5900727564603800e+05  2.4539728278539845e+05  6.6661200000000000e+05  6.6661200000000000e+05  4.5242811913462362e+05  1.1362643342887565e+05  1.5636123930915052e+05  1.8414599545690467e+05  2.4506591634305764e+05  6.6661200000000000e+05  6.6661200000000000e+05  6.6661200000000000e+05  2.9143284882701794e+05  6.6661200000000000e+05  4.7228924440642440e+05  6.6661200000000000e+05  1.7306076864732447e+05  1.4821634415264858e+05  1.7874493158843604e+05  2.6977434066361672e+05  2.6188247699690922e+05  3.0923227123760746e+05  4.5737154819242522e+05  6.6661200000000000e+05  4.1621399090397073e+05  4.4496145851122239e+05  6.6661200000000000e+05  2.8280781648579019e+05  6.666120000000000