<?xml version="1.0"?>
<VTKFile type="UnstructuredGrid"  version="0.1"  >
<UnstructuredGrid>
<Piece  NumberOfPoints="286" NumberOfCells="1184">
<Points>
<DataArray  type="Float64"  NumberOfComponents="3"  format="ascii">-0.01338312889879444 0.02758761814036925 -0.01092580495954253  -0.01341333897184527 0.02906528379171569 0.006646482962396043  -0.004723664339522169 0.01436083699704771 -0.006452350736025557  0.00452525589703227 0.02519908756886806 0.001729070751516216  -0.009833015193333331 0.01115902854167992 0.007905693006355312  -0.02110702855078297 0.01422979806720332 -0.002388842484743442  -0.01386558532337371 0.001092281978160741 -0.007817742688118565  -0.01876687450333196 0.0005485825793034166 0.005854836043589898  -0.02765336977977474 0.0408461491513017 -0.006111877564391858  -0.00758089231320567 0.03772299037843375 -0.005124057563974563  -0.01610012591476968 0.0457748060706592 -0.01083745546204431  -0.01641656113422063 -0.002415750052757151 0.0193563240758981  -0.01533581288966374 -0.004277727465033087 0.03273645846584398  -0.01595527810947117 0.009408301290701471 0.02920253631473494  -0.02826309160940841 0.0009731018265036959 0.0264129671154669  -0.02887559977551161 -0.01937417239039227 -0.01388706989669788  -0.02964985472187798 -0.02262332631986236 -0.0006729566051214804  -0.01759869962852696 -0.02537799831543624 -0.00766647286710756  -0.0243167554525697 -0.009541966709740841 -0.002143979898019257  0.01989874072684592 0.02712329528991818 -0.004710205333504932  0.01360827634879544 0.04762896722078402 -0.006804138174397719  0.02490225464412892 0.04075225035172789 -0.01403716354443335  0.004145081414944474 0.03538579579750793 -0.01032896431231086  0.008435093442475384 -0.02966885716642436 -0.02144075918726396  0.003261185937455727 -0.01450264040485807 -0.007002916813340643  0.009139482125646418 -0.02980424649056075 -0.007932579315831179  0.01232472123946592 -0.01674657734871765 -0.02050754054256185  -0.01282466549946647 -0.03916777359801004 0.02770140943920422  -0.0248791133091972 -0.03645345708908296 0.02281971488380594  -0.0162703185885837 -0.03242592429091454 0.005198436713280543  -0.01126295445833518 -0.04497275997585327 0.01794079060848478  0.02298568980766887 -0.03736754015518157 -0.0231212588914388  0.0321287332305485 -0.02873530615222517 -0.02457988855392669  0.02612486500334708 -0.01895247201525065 -0.01473990436734911  0.01964088759746309 -0.01618956009643781 -0.001364556859261052  0.01392002746166526 -0.002633962508513495 -0.006725781534532889  -0.004316288695375974 -0.03069105797881403 -0.01704271687292833  -0.008035387377702784 -0.01495807451039071 -0.01890828528128037  -0.003951459706134072 0.01669496781187763 0.02122001405881635  -0.003063522340049653 0.001380581758477498 0.03171793289329364  -0.0001152698029360764 0.002006660506490184 0.01592504756368585  0.007905231674848856 0.00377256595698088 -0.03623267976251662  0.01233715276143694 -0.008024342680121161 -0.03285243354495197  0.02101844284439022 -0.005176819276079785 -0.04489405836705632  0.02816289233311234 0.005030888887132396 -0.04066222544493055  0.01914325096542776 0.002930384698647934 0.006386696515402502  0.01156038849600193 -0.006816208963454834 0.00926656633609327  -0.02411819668347808 0.03967996409546824 -0.01796165602374504  -0.01335099395090319 0.04262205937177715 -0.02174561816419056  -0.006888513685114447 0.03196375354228117 -0.02068109834131445  0.01575483307130244 0.005170943680071956 0.0195081367132976  0.0112749611127896 0.0191967815553444 0.02658811420216664  0.009322984138396098 0.01095232302805212 0.006366539292591395  0.02600731046080986 -0.003948419691532262 -0.01659467147669174  0.04721557548082353 -0.0003646240334509075 -0.0159003852998048  0.03312132189540692 -0.009701514834727448 -0.004379859626385645  0.04174206810002666 -0.01164258826843334 -0.02431048663065898  -0.001097310859375729 -0.002415595882314029 -0.0147207760502137  -0.003529353762600175 -0.004311059421614049 -0.03239861861580205  -0.04818136820143686 0.003560719108440068 -0.01226001370317779  -0.04787619329859662 -0.01165027361753842 -0.00751599623201786  -0.03681908933509971 -0.003138534526380012 -0.004587709778823513  -0.049837367580708 -0.001809105666779343 0.001127284526364743  -0.02500688147611453 -0.01644635223851557 0.02494242183971606  -0.03384286670675808 -0.03214581645591288 0.01742193769158758  -0.03886485604033224 -0.01890700898635429 0.02459235781800456  -0.01989839288109099 -0.02000181722998857 0.01308198114238634  -0.01724496089081991 -0.002192624841270695 -0.03192142291355606  -0.01292959514631171 0.007113366286405604 -0.02256142786399307  -0.007849386737299239 0.01849185307329975 -0.04551960606336013  -0.01187936352886141 0.02151752995254433 -0.02575809717691979  -0.000725404100840682 0.01259673948376928 -0.03200407123514597  -0.00282752173971987 0.02934587312112103 -0.04011178057619634  0.01742451218196591 -0.0183030406262282 0.02977393345102818  0.003785884633511406 -0.02228158806097801 0.03272916665371418  0.01315609877108286 -0.02772144741129712 0.0390297490700538  0.003293784749171745 -0.0192733095663605 0.04577653342796029  -0.00944972224908841 0.02952818738726979 0.02007444645410788  -0.02225590973889807 0.01538382023025696 0.01649175026008171  0.02255197719239724 -0.01604690032097349 0.04143378582986645  0.0244764863914649 -0.03069448737020375 0.03024537501079525  0.02809940386061002 0.02263237489767805 0.03414267544769535  0.02659522030532679 0.01446279010116367 0.02221823246782987  0.02020658280619598 0.03149862240516021 0.03257228563542826  0.001061157248435883 -0.01859258364877066 -0.0304375422145206  0.0409573455893739 0.01644683809757889 0.02321318732547006  0.03857583749052298 0.007715167498104593 0.03086066999241838  0.02879179845703604 -0.000343732027385176 0.02343585823608148  0.0468656447708045 0.005919402701850418 0.01579196079071855  -0.02944351757433398 0.005692703606258365 0.03975286089048938  -0.03035492160549438 -0.00879393336132004 0.01621942842822001  -0.01112048679058391 -0.01313899311025952 -0.005328982871425789  -0.00384794449700957 -0.02459940264490286 0.004026286506113242  0.018798541900368 0.01824486709235452 -0.01890435775442489  0.02368681796152566 0.006638121391654084 -0.0266581381507809  0.02296251248307538 0.009760790189634092 -0.003590695113526179  0.009465293403243071 0.01125230067986899 -0.009667433708146609  -0.03759824897821311 -0.01875706629401699 -0.02636568214112303  -0.0422387357635309 -0.02204150792819547 -0.01417199051100223  -0.04461195020209345 -0.00843350071951947 -0.02051556984277772  -0.001598385995189895 -0.04356697645533639 0.02394298831400507  0.008989041657964582 -0.04401813888430962 0.02154323549566737  2.787673969719372e-05 -0.03558569173305491 0.009951073319454348  -0.003933417414291355 -0.028049431811555 0.01986755313802237  -0.03302421140673095 0.009250251024409661 0.01830770756518295  -0.0371501492106421 0.01098876506580277 0.03113816652039417  0.01943582956615895 0.03942082476726533 -0.02309531536813575  0.009433621291803987 0.0431164190208764 -0.02304032054687278  0.04459421015918945 -0.007566991842929685 0.02106275939753895  0.04947896572031898 -0.005896058673538118 0.002647781765719667  0.02984287877652756 -0.003315509128451742 0.009087865971958674  0.02059061382772228 -0.04539097843555066 0.001455311176616948  0.03091689228131799 -0.0389736349917313 0.000338353058248375  0.0227120428134098 -0.02919521336202256 -0.005105807217690753  0.0240303278112179 -0.0282225281317504 0.007400568368646636  -0.03016886049235012 -0.02777916461068818 0.02780126746821613  -0.01621951075053156 0.02617960208252607 -0.03910837124213984  -0.00937624107359405 0.03711710711569714 -0.0318054183736599  -0.02021848717526689 0.01418333074094367 -0.04308787117159577  -0.01160491451419281 0.008103974547401072 -0.03631009189982831  0.04385918855969638 0.01981534928067206 0.01223001459584134  0.03080273452766071 0.02521323188557277 0.005118702936109926  0.03171893802379958 0.01164606308385732 0.008551254921258482  0.03541829625220751 0.02685757960101376 0.0220586150180817  0.00963788201515952 0.007213686167105271 0.03393644568561492  0.0002605358230764344 0.01691095079802497 0.03403381477049268  0.004733275133481771 0.02124785021597222 -0.04485074679371227  0.01314657312525812 0.01470271413991706 -0.03127019219020273  -0.03822106715877892 0.01712909003017504 -0.02670609186047463  -0.04172395719097322 0.003473920738224883 -0.02682941459280382  -0.02855662089909234 0.003007601228767894 -0.01444878186003096  -0.04582469915328927 0.01632390966343362 -0.01022594093759616  -0.01581599519546086 0.02207763844859782 0.02817107016158181  -0.02373492331468379 0.03944252086660781 0.01875843777159783  -0.01859360819125088 0.03611032642500334 0.0283990807621786  -0.002828932259891735 0.04977664680278665 0.001203794675856174  -0.001723159121617608 0.03682587560438148 0.006492057947658303  0.02226537776178818 0.005049891814432226 0.04428210457617508  0.03018222031190309 0.01046623575848093 0.03809264273138607  0.01470235063089899 -0.005778300981268731 0.03152149098151651  -0.02359371403373837 -0.0105092201054274 -0.02279120186214676  -0.02446654656029155 -0.02554167941195653 -0.03512713196914302  -0.02839043067343089 -0.01315784454787329 -0.03850448201200125  -0.0121029723793616 -0.02306734497795853 -0.0293814643111853  0.009653434094293908 0.003385687609362812 -0.02330870375487765  -0.01079784071322239 -0.03664068659163456 -0.03184195674702386  -0.02245037753781487 -0.03554971519959003 -0.02641294767384163  0.04055535528269064 -0.02433321316961438 -0.01622214211307626  0.03831762302478919 -0.03152167687368398 -0.003000776190042863  0.03626035930603767 0.03084502625104593 -0.01402281975838854  0.0267799833473294 0.03247643202659933 -0.0264928771973257  -0.008625465214870683 -0.01022825782284358 0.008181266456001972  -0.01239563458007563 -0.01618789416983179 0.02697744348785661  -0.04778052848002395 -0.01323805206250809 0.005915003934388298  -0.03498281822648665 -0.01214069591176611 0.004644376573393916  -0.
[...]
<PointData  Scalars="f_59"> 
<DataArray  type="Float64"  Name="f_59"  format="ascii">2.8213253688777919e+05  2.8638048535102728e+05  1.5151612087576487e+05  2.0723704060902435e+05  1.5289229805125282e+05  2.0745922913464464e+05  1.4826203256371172e+05  1.6761544470300802e+05  6.6661200000000000e+05  3.8206617578622513e+05  6.6661200000000000e+05  2.0694543600325135e+05  3.4115080307975289e+05  3.1200400711468962e+05  3.8141210333268100e+05  3.5516101855179260e+05  3.5211742987354187e+05  2.7407759358846227e+05  2.1165502583431086e+05  2.9881863905221887e+05  6.6661200000000000e+05  6.6661200000000000e+05  3.5140346609462990e+05  3.5693677243222069e+05  1.5003787386342447e+05  2.7798472065425670e+05  2.4370226244854947e+05  6.6661200000000000e+05  6.6661200000000000e+05  3.4185862006965885e+05  6.6661200000000000e+05  6.6661200000000000e+05  6.6661200000000000e+05  3.2334137273633218e+05  2.0551220749208197e+05  1.4713475486877319e+05  3.2122320983965875e+05  2.0567439241847803e+05  2.2201115305840224e+05  2.7479734127128078e+05  1.5006212287586243e+05  3.5178562094762770e+05  3.2561299122342293e+05  6.6661200000000000e+05  6.6661200000000000e+05  1.7122053840948080e+05  1.5050081472170301e+05  6.6661200000000000e+05  6.6661200000000000e+05  3.7716836777610774e+05  2.0857192674000195e+05  3.1007096668553358e+05  1.4782402662685019e+05  2.6398618164070806e+05  6.6661200000000000e+05  3.1380369269830792e+05  6.6661200000000000e+05  1.4441168906010667e+05  2.8601891434806283e+05  6.6661200000000000e+05  6.6661200000000000e+05  3.5099759504180908e+05  6.6661200000000000e+05  3.8400423527110170e+05  6.6661200000000000e+05  6.6661200000000000e+05  2.6387486779617640e+05  3.3862509612402925e+05  2.1846045325790704e+05  6.6661200000000000e+05  3.2499625807156990e+05  3.0622176278407045e+05  6.6661200000000000e+05  3.8930144487347937e+05  4.0257016553381697e+05  6.6661200000000000e+05  6.6661200000000000e+05  3.4822100185605587e+05  2.7446555688927736e+05  6.6661200000000000e+05  6.6661200000000000e+05  6.6661200000000000e+05  3.5923500389541854e+05  6.6661200000000000e+05  3.2504722763877275e+05  6.6661200000000000e+05  6.6661200000000000e+05  3.5129301549782651e+05  6.6661200000000000e+05  6.6661200000000000e+05  3.2551385729582084e+05  1.5790193624185436e+05  2.0305672292781234e+05  2.7988526007107878e+05  3.3385563638213166e+05  2.0468999244069058e+05  1.5578535399399247e+05  6.6661200000000000e+05  6.6661200000000000e+05  6.6661200000000000e+05  6.6661200000000000e+05  6.6661200000000000e+05  3.4592207883222314e+05  3.1046772809176828e+05  3.8369862320080900e+05  6.6661200000000000e+05  6.6661200000000000e+05  6.6661200000000000e+05  6.6661200000000000e+05  6.6661200000000000e+05  2.6744863993611181e+05  6.6661200000000000e+05  6.6661200000000000e+05  3.5347594997074758e+05  3.6070393368140934e+05  6.6661200000000000e+05  6.6661200000000000e+05  6.6661200000000000e+05  6.6661200000000000e+05  3.8193513779075333e+05  6.6661200000000000e+05  4.0962237683660822e+05  3.1508923817538051e+05  6.6661200000000000e+05  3.3151237066261808e+05  3.6661144671427540e+05  6.6661200000000000e+05  3.4800269079418812e+05  6.6661200000000000e+05  6.6661200000000000e+05  2.7889331022389868e+05  6.6661200000000000e+05  3.8695191006095090e+05  6.6661200000000000e+05  6.6661200000000000e+05  6.6661200000000000e+05  3.5690596268187603e+05  6.6661200000000000e+05  6.6661200000000000e+05  3.2209792637000722e+05  3.0781781330269680e+05  6.6661200000000000e+05  6.6661200000000000e+05  3.9257440538181720e+05  2.0563088690502179e+05  6.6661200000000000e+05  6.6661200000000000e+05  6.6661200000000000e+05  6.6661200000000000e+05  6.6661200000000000e+05  6.6661200000000000e+05  1.4727261353607854e+05  2.9973741899839113e+05  6.6661200000000000e+05  3.5410870272758603e+05  6.6661200000000000e+05  3.5093404567631677e+05  3.9053503801471507e+05  6.6661200000000000e+05  6.6661200000000000e+05  1.1693098006784914e+05  6.6661200000000000e+05  6.6661200000000000e+05  2.7817224246623495e+05  2.2227046767755706e+05  6.6661200000000000e+05  6.6661200000000000e+05  6.6661200000000000e+05  1.7968527628266861e+05  6.6661200000000000e+05  3.4210018498548638e+05  3.0680577802392800e+05  2.6648145175419038e+05  6.6661200000000000e+05  6.6661200000000000e+05  6.6661200000000000e+05  3.4282639977433434e+05  6.6661200000000000e+05  3.4619962318431825e+05  6.6661200000000000e+05  6.6661200000000000e+05  3.8542616899748589e+05  3.6108192316578439e+05  3.3753872695165174e+05  6.6661200000000000e+05  6.6661200000000000e+05  6.6661200000000000e+05  3.4446772618558962e+05  6.6661200000000000e+05  6.6661200000000000e+05  2.9354407769149728e+05  6.6661200000000000e+05  6.6661200000000000e+05  6.6661200000000000e+05  3.7120740139313799e+05  6.6661200000000000e+05  6.6661200000000000e+05  6.6661200000000000e+05  3.6336579369479598e+05  3.5599365878160490e+05  6.6661200000000000e+05  6.6661200000000000e+05  6.6661200000000000e+05  2.8594396205525077e+05  6.6661200000000000e+05  6.6661200000000000e+05  6.6661200000000000e+05  6.6661200000000000e+05  6.6661200000000000e+05  6.6661200000000000e+05  6.6661200000000000e+05  6.6661200000000000e+05  6.6661200000000000e+05  6.6661200000000000e+05  6.6661200000000000e+05  6.6661200000000000e+05  6.6661200000000000e+05  6.6661200000000000e+05  3.0521479709067848e+05  6.6661200000000000e+05  6.6661200000000000e+05  6.6661200000000000e+05  3.6218623870663205e+05  6.6661200000000000e+05  6.6661200000000000e+05  6.6661200000000000e+05  6.6661200000000000e+05  6.6661200000000000e+05  6.6661200000000000e+05  6.6661200000000000e+05  6.6661200000000000e+05  6.6661200000000000e+05  6.6661200000000000e+05  6.6661200000000000e+05  6.6661200000000000e+05  6.6661200000000000e+05  6.6661200000000000e+05  6.6661200000000000e+05  6.6661200000000000e+05  6.6661200000000000e+05  6.6661200000000000e+05  6.6661200000000000e+05  6.6661200000000000e+05  6.6661200000000000e+05  6.6661200000000000e+05  6.6661200000000000e+05  3.4983987359049235e+05  6.6661200000000000e+05  6.6661200000000000e+05  6.6661200000000000e+05  6.6661200000000000e+05  6.6661200000000000e+05  6.6661200000000000e+05  6.6661200000000000e+05  6.6661200000000000e+05  6.6661200000000000e+05  6.6661200000000000e+05  6.6661200000000000e+05  6.6661200000000000e+05  6.6661200000000000e+05  6.6661200000000000e+05  6.6661200000000000e+05  6.6661200000000000e+05  6.6661200000000000e+05  6.6661200000000000e+05  6.6661200000000000e+05  6.6661200000000000e+05  6.6661200000000000e+05  2.4820670960747369e+05  6.6661200000000000e+05  6.6661200000000000e+05  6.6661200000000000e+05  1.7637297739131621e+05  6.6661200000000000e+05  6.6661200000000000e+05  6.6661200000000000e+05  6.6661200000000000e+05  6.6661200000000000e+05  6.6661200000000000e+05  6.6661200000000000e+05  6.6661200000000000e+05  6.6661200000000000e+05  6.6661200000000000e+05  6.6661200000000000e+05  6.6661200000000000e+05  6.6661200000000000e+05  </DataArray> 
</PointData> 
</Piece>
</UnstructuredGrid>
</VTKFile>